Protein in water
12853
  117GLY      N    1   1.316   2.988   2.903
  117GLY     H1    2   1.251   3.062   2.932
  117GLY     H2    3   1.414   3.005   2.932
  117GLY     H3    4   1.310   2.978   2.804
  117GLY     CA    5   1.267   2.866   2.967
  117GLY    HA1    6   1.278   2.875   3.075
  117GLY    HA2    7   1.160   2.856   2.947
  117GLY      C    8   1.337   2.740   2.917
  117GLY      O    9   1.346   2.645   2.995
  118THR      N   10   1.385   2.735   2.793
  118THR      H   11   1.390   2.815   2.732
  118THR     CA   12   1.444   2.617   2.732
  118THR     HA   13   1.387   2.529   2.762
  118THR     CB   14   1.437   2.636   2.578
  118THR     HB   15   1.462   2.538   2.536
  118THR    OG1   16   1.527   2.729   2.520
  118THR    HG1   17   1.482   2.810   2.496
  118THR    CG2   18   1.296   2.672   2.528
  118THR   HG21   19   1.289   2.661   2.420
  118THR   HG22   20   1.220   2.608   2.573
  118THR   HG23   21   1.270   2.776   2.552
  118THR      C   22   1.589   2.604   2.784
  118THR      O   23   1.646   2.703   2.832
  119ASP      N   24   1.648   2.484   2.780
  119ASP      H   25   1.595   2.406   2.746
  119ASP     CA   26   1.789   2.462   2.810
  119ASP     HA   27   1.812   2.504   2.908
  119ASP     CB   28   1.815   2.309   2.818
  119ASP    HB1   29   1.765   2.266   2.904
  119ASP    HB2   30   1.774   2.261   2.730
  119ASP     CG   31   1.963   2.273   2.826
  119ASP    OD1   32   2.034   2.329   2.911
  119ASP    OD2   33   2.012   2.191   2.746
  119ASP      C   34   1.881   2.534   2.709
  119ASP      O   35   1.920   2.477   2.607
  120VAL      N   36   1.915   2.659   2.740
  120VAL      H   37   1.870   2.701   2.820
  120VAL     CA   38   1.999   2.746   2.658
  120VAL     HA   39   1.965   2.730   2.556
  120VAL     CB   40   1.976   2.895   2.695
  120VAL     HB   41   2.046   2.955   2.636
  120VAL    CG1   42   1.836   2.943   2.656
  120VAL   HG11   43   1.823   3.049   2.680
  120VAL   HG12   44   1.817   2.930   2.550
  120VAL   HG13   45   1.758   2.889   2.709
  120VAL    CG2   46   2.005   2.930   2.842
  120VAL   HG21   47   1.999   3.038   2.859
  120VAL   HG22   48   1.931   2.884   2.908
  120VAL   HG23   49   2.104   2.898   2.875
  120VAL      C   50   2.149   2.711   2.667
  120VAL      O   51   2.232   2.774   2.602
  121GLN      N   52   2.186   2.611   2.748
  121GLN      H   53   2.115   2.568   2.803
  121GLN     CA   54   2.322   2.562   2.760
  121GLN     HA   55   2.392   2.645   2.755
  121GLN     CB   56   2.338   2.488   2.893
  121GLN    HB1   57   2.295   2.552   2.969
  121GLN    HB2   58   2.278   2.397   2.892
  121GLN     CG   59   2.483   2.456   2.931
  121GLN    HG1   60   2.520   2.368   2.879
  121GLN    HG2   61   2.549   2.538   2.902
  121GLN     CD   62   2.497   2.437   3.082
  121GLN    OE1   63   2.573   2.506   3.149
  121GLN    NE2   64   2.420   2.345   3.139
  121GLN   HE21   65   2.362   2.287   3.081
  121GLN   HE22   66   2.421   2.329   3.239
  121GLN      C   67   2.354   2.468   2.644
  121GLN      O   68   2.471   2.456   2.607
  122ALA      N   69   2.253   2.408   2.579
  122ALA      H   70   2.159   2.422   2.618
  122ALA     CA   71   2.266   2.333   2.453
  122ALA     HA   72   2.323   2.243   2.474
  122ALA     CB   73   2.127   2.291   2.403
  122ALA    HB1   74   2.134   2.238   2.308
  122ALA    HB2   75   2.079   2.224   2.474
  122ALA    HB3   76   2.061   2.377   2.388
  122ALA      C   77   2.344   2.410   2.346
  122ALA      O   78   2.434   2.355   2.282
  123TRP      N   79   2.317   2.541   2.336
  123TRP      H   80   2.243   2.577   2.394
  123TRP     CA   81   2.389   2.633   2.248
  123TRP     HA   82   2.373   2.597   2.146
  123TRP     CB   83   2.323   2.772   2.258
  123TRP    HB1   84   2.330   2.810   2.360
  123TRP    HB2   85   2.373   2.844   2.194
  123TRP     CG   86   2.179   2.767   2.216
  123TRP    CD1   87   2.073   2.772   2.299
  123TRP    HD1   88   2.083   2.788   2.404
  123TRP    CD2   89   2.125   2.740   2.084
  123TRP    NE1   90   1.958   2.740   2.229
  123TRP    HE1   91   1.872   2.715   2.276
  123TRP    CE2   92   1.984   2.723   2.095
  123TRP    CE3   93   2.182   2.724   1.956
  123TRP    HE3   94   2.289   2.736   1.943
  123TRP    CZ2   95   1.903   2.690   1.986
  123TRP    HZ2   96   1.797   2.678   1.997
  123TRP    CZ3   97   2.102   2.689   1.845
  123TRP    HZ3   98   2.149   2.675   1.750
  123TRP    CH2   99   1.963   2.671   1.860
  123TRP    HH2  100   1.901   2.642   1.777
  123TRP      C  101   2.542   2.633   2.269
  123TRP      O  102   2.615   2.634   2.170
  124ILE      N  103   2.592   2.621   2.393
  124ILE      H  104   2.528   2.605   2.469
  124ILE     CA  105   2.735   2.622   2.426
  124ILE     HA  106   2.793   2.658   2.341
  124ILE     CB  107   2.762   2.719   2.545
  124ILE     HB  108   2.870   2.716   2.561
  124ILE    CG1  109   2.695   2.679   2.678
  124ILE   HG11  110   2.593   2.717   2.681
  124ILE   HG12  111   2.687   2.571   2.689
  124ILE    CG2  112   2.728   2.865   2.510
  124ILE   HG21  113   2.757   2.933   2.590
  124ILE   HG22  114   2.782   2.897   2.421
  124ILE   HG23  115   2.622   2.878   2.493
  124ILE     CD  116   2.773   2.732   2.799
  124ILE    HD1  117   2.719   2.708   2.891
  124ILE    HD2  118   2.871   2.686   2.806
  124ILE    HD3  119   2.785   2.840   2.797
  124ILE      C  120   2.793   2.481   2.453
  124ILE      O  121   2.912   2.469   2.480
  125ARG      N  122   2.711   2.375   2.446
  125ARG      H  123   2.615   2.392   2.421
  125ARG     CA  124   2.754   2.236   2.470
  125ARG     HA  125   2.826   2.232   2.552
  125ARG     CB  126   2.633   2.148   2.505
  125ARG    HB1  127   2.547   2.170   2.441
  125ARG    HB2  128   2.659   2.044   2.484
  125ARG     CG  129   2.595   2.149   2.652
  125ARG    HG1  130   2.686   2.148   2.712
  125ARG    HG2  131   2.544   2.241   2.678
  125ARG     CD  132   2.516   2.026   2.691
  125ARG    HD1  133   2.455   1.989   2.609
  125ARG    HD2  134   2.586   1.948   2.715
  125ARG     NE  135   2.430   2.060   2.806
  125ARG     HE  136   2.479   2.073   2.894
  125ARG     CZ  137   2.304   2.102   2.797
  125ARG    NH1  138   2.238   2.103   2.682
  125ARG   HH11  139   2.270   2.070   2.592
  125ARG   HH12  140   2.138   2.139   2.691
  125ARG    NH2  141   2.240   2.144   2.904
  125ARG   HH21  142   2.249   2.107   3.001
  125ARG   HH22  143   2.148   2.191   2.890
  125ARG      C  144   2.816   2.175   2.344
  125ARG      O  145   2.746   2.152   2.244
  126GLY      N  146   2.944   2.144   2.350
  126GLY      H  147   2.996   2.171   2.435
  126GLY     CA  148   3.024   2.094   2.239
  126GLY    HA1  149   3.069   2.000   2.270
  126GLY    HA2  150   2.964   2.071   2.151
  126GLY      C  151   3.133   2.194   2.200
  126GLY      O  152   3.217   2.162   2.117
  127CYS      N  153   3.134   2.315   2.258
  127CYS      H  154   3.067   2.335   2.331
  127CYS     CA  155   3.229   2.420   2.226
  127CYS     HA  156   3.269   2.408   2.125
  127CYS     CB  157   3.161   2.557   2.240
  127CYS    HB1  158   3.141   2.582   2.344
  127CYS    HB2  159   3.225   2.633   2.198
  127CYS     SG  160   3.005   2.568   2.151
  127CYS     HG  161   2.979   2.696   2.182
  127CYS      C  162   3.340   2.417   2.331
  127CYS      O  163   3.312   2.410   2.450
  128ARG      N  164   3.467   2.433   2.289
  128ARG      H  165   3.485   2.441   2.190
  128ARG     CA  166   3.577   2.463   2.380
  128ARG     HA  167   3.558   2.418   2.477
  128ARG     CB  168   3.709   2.410   2.319
  128ARG    HB1  169   3.704   2.414   2.210
  128ARG    HB2  170   3.794   2.473   2.346
  128ARG     CG  171   3.734   2.267   2.366
  128ARG    HG1  172   3.645   2.208   2.349
  128ARG    HG2  173   3.813   2.224   2.304
  128ARG     CD  174   3.776   2.260   2.514
  128ARG    HD1  175   3.711   2.314   2.582
  128ARG    HD2  176   3.772   2.156   2.547
  128ARG     NE  177   3.915   2.305   2.526
  128ARG     HE  178   3.981   2.241   2.484
  128ARG     CZ  179   3.964   2.422   2.569
  128ARG    NH1  180   3.889   2.519   2.623
  128ARG   HH11  181   3.790   2.509   2.640
  128ARG   HH12  182   3.936   2.592   2.680
  128ARG    NH2  183   4.093   2.438   2.552
  128ARG   HH21  184   4.157   2.363   2.526
  128ARG   HH22  185   4.142   2.529   2.559
  128ARG      C  186   3.586   2.614   2.395
  128ARG      O  187   3.614   2.683   2.297
  129LEU      N  188   3.560   2.660   2.517
  129LEU      H  189   3.531   2.594   2.588
  129LEU     CA  190   3.535   2.798   2.554
  129LEU     HA  191   3.555   2.866   2.471
  129LEU     CB  192   3.386   2.803   2.597
  129LEU    HB1  193   3.350   2.702   2.617
  129LEU    HB2  194   3.379   2.848   2.696
  129LEU     CG  195   3.286   2.872   2.500
  129LEU     HG  196   3.292   2.980   2.512
  129LEU    CD1  197   3.316   2.844   2.352
  129LEU   HD11  198   3.231   2.869   2.288
  129LEU   HD12  199   3.400   2.904   2.317
  129LEU   HD13  200   3.341   2.740   2.338
  129LEU    CD2  201   3.141   2.830   2.534
  129LEU   HD21  202   3.069   2.874   2.465
  129LEU   HD22  203   3.128   2.722   2.528
  129LEU   HD23  204   3.113   2.860   2.635
  129LEU      C  205   3.636   2.833   2.664
  129LEU     O1  206   3.613   2.786   2.778
  129LEU     O2  207   3.740   2.896   2.635
  130SOL     OW  208   0.171   0.592   0.045
  130SOL    HW1  209   0.135   0.612   0.137
  130SOL    HW2  210   0.251   0.533   0.053
  131SOL     OW  211   0.228   0.301   1.017
  131SOL    HW1  212   0.255   0.260   1.103
  131SOL    HW2  213   0.131   0.282   1.000
  132SOL     OW  214   0.018   0.412   0.648
  132SOL    HW1  215   5.060   0.474   0.713
  132SOL    HW2  216   5.067   0.320   0.659
  133SOL     OW  217   0.581   1.317   1.170
  133SOL    HW1  218   0.495   1.313   1.119
  133SOL    HW2  219   0.584   1.401   1.224
  134SOL     OW  220   1.564   1.529   0.731
  134SOL    HW1  221   1.524   1.499   0.818
  134SOL    HW2  222   1.500   1.510   0.657
  135SOL     OW  223   1.123   0.714   0.692
  135SOL    HW1  224   1.164   0.801   0.668
  135SOL    HW2  225   1.096   0.715   0.789
  136SOL     OW  226   1.776   0.562   0.229
  136SOL    HW1  227   1.716   0.566   0.150
  136SOL    HW2  228   1.723   0.539   0.310
  137SOL     OW  229   0.748   1.155   1.016
  137SOL    HW1  230   0.684   1.196   1.080
  137SOL    HW2  231   0.806   1.226   0.977
  138SOL     OW  232   0.798   0.830   1.796
  138SOL    HW1  233   0.853   0.811   1.877
  138SOL    HW2  234   0.858   0.850   1.718
  139SOL     OW  235   0.691   0.993   0.644
  139SOL    HW1  236   0.767   0.989   0.710
  139SOL    HW2  237   0.617   1.048   0.682
  140SOL     OW  238   0.717   1.164   1.805
  140SOL    HW1  239   0.765   1.242   1.846
  140SOL    HW2  240   0.626   1.192   1.776
  141SOL     OW  241   0.321   1.437   1.060
  141SOL    HW1  242   0.266   1.378   1.002
  141SOL    HW2  243   0.378   1.497   1.004
  142SOL     OW  244   1.464   1.513   1.372
  142SOL    HW1  245   1.530   1.588   1.382
  142SOL    HW2  246   1.396   1.518   1.446
  143SOL     OW  247   0.430   0.397   1.532
  143SOL    HW1  248   0.516   0.349   1.513
  143SOL    HW2  249   0.353   0.337   1.512
  144SOL     OW  250   1.617   0.458   0.707
  144SOL    HW1  251   1.535   0.472   0.651
  144SOL    HW2  252   1.622   0.531   0.775
  145SOL     OW  253   0.214   1.710   0.524
  145SOL    HW1  254   0.252   1.798   0.554
  145SOL    HW2  255   0.227   1.701   0.425
  146SOL     OW  256   1.123   1.356   1.687
  146SOL    HW1  257   1.190   1.343   1.760
  146SOL    HW2  258   1.071   1.271   1.674
  147SOL     OW  259   0.220   1.444   0.534
  147SOL    HW1  260   0.227   1.543   0.536
  147SOL    HW2  261   0.130   1.416   0.567
  148SOL     OW  262   0.297   1.074   0.918
  148SOL    HW1  263   0.283   0.978   0.939
  148SOL    HW2  264   0.224   1.129   0.960
  149SOL     OW  265   0.598   1.809   1.421
  149SOL    HW1  266   0.518   1.780   1.474
  149SOL    HW2  267   0.629   1.898   1.453
  150SOL     OW  268   0.558   0.979   0.145
  150SOL    HW1  269   0.616   1.009   0.069
  150SOL    HW2  270   0.593   1.018   0.230
  151SOL     OW  271   1.595   0.122   1.490
  151SOL    HW1  272   1.592   0.189   1.417
  151SOL    HW2  273   1.581   0.168   1.578
  152SOL     OW  274   0.147   0.636   0.561
  152SOL    HW1  275   0.104   0.549   0.584
  152SOL    HW2  276   0.115   0.707   0.624
  153SOL     OW  277   1.870   1.728   0.339
  153SOL    HW1  278   1.931   1.698   0.412
  153SOL    HW2  279   1.888   1.825   0.319
  154SOL     OW  280   5.084   1.565   0.099
  154SOL    HW1  281   0.006   1.479   0.149
  154SOL    HW2  282   0.037   1.639   0.154
  155SOL     OW  283   1.680   0.898   0.633
  155SOL    HW1  284   1.757   0.845   0.598
  155SOL    HW2  285   1.666   0.979   0.575
  156SOL     OW  286   1.666   1.115   0.481
  156SOL    HW1  287   1.743   1.129   0.418
  156SOL    HW2  288   1.666   1.188   0.549
  157SOL     OW  289   0.115   0.759   1.640
  157SOL    HW1  290   0.209   0.789   1.654
  157SOL    HW2  291   0.083   0.790   1.551
  158SOL     OW  292   0.603   1.397   0.749
  158SOL    HW1  293   0.573   1.306   0.778
  158SOL    HW2  294   0.586   1.408   0.652
  159SOL     OW  295   1.281   1.230   1.429
  159SOL    HW1  296   1.306   1.166   1.356
  159SOL    HW2  297   1.343   1.219   1.506
  160SOL     OW  298   0.818   0.029   0.558
  160SOL    HW1  299   0.854   0.115   0.524
  160SOL    HW2  300   0.718   0.028   0.547
  161SOL     OW  301   0.208   0.980   1.243
  161SOL    HW1  302   0.298   0.942   1.223
  161SOL    HW2  303   0.166   1.011   1.158
  162SOL     OW  304   1.504   1.010   0.242
  162SOL    HW1  305   1.428   0.950   0.267
  162SOL    HW2  306   1.587   0.980   0.288
  163SOL     OW  307   1.182   1.801   1.615
  163SOL    HW1  308   1.181   1.876   1.549
  163SOL    HW2  309   1.201   1.715   1.567
  164SOL     OW  310   0.289   0.214   1.823
  164SOL    HW1  311   0.356   0.289   1.826
  164SOL    HW2  312   0.202   0.245   1.860
  165SOL     OW  313   1.458   1.413   0.958
  165SOL    HW1  314   1.398   1.443   1.032
  165SOL    HW2  315   1.432   1.321   0.929
  166SOL     OW  316   1.651   1.738   0.590
  166SOL    HW1  317   1.639   1.698   0.499
  166SOL    HW2  318   1.629   1.669   0.660
  167SOL     OW  319   0.602   0.720   0.268
  167SOL    HW1  320   0.614   0.811   0.228
  167SOL    HW2  321   0.547   0.727   0.351
  168SOL     OW  322   1.277   0.374   0.959
  168SOL    HW1  323   1.185   0.337   0.969
  168SOL    HW2  324   1.339   0.327   1.022
  169SOL     OW  325   1.575   1.635   0.331
  169SOL    HW1  326   1.664   1.677   0.313
  169SOL    HW2  327   1.540   1.594   0.247
  170SOL     OW  328   0.791   0.628   1.463
  170SOL    HW1  329   0.774   0.606   1.559
  170SOL    HW2  330   0.754   0.555   1.405
  171SOL     OW  331   1.401   0.465   1.680
  171SOL    HW1  332   1.387   0.526   1.759
  171SOL    HW2  333   1.450   0.383   1.710
  172SOL     OW  334   0.959   0.890   1.579
  172SOL    HW1  335   1.009   0.809   1.548
  172SOL    HW2  336   0.906   0.927   1.502
  173SOL     OW  337   0.998   0.419   1.200
  173SOL    HW1  338   0.933   0.473   1.252
  173SOL    HW2  339   0.951   0.345   1.153
  174SOL     OW  340   1.045   0.682   0.415
  174SOL    HW1  341   1.062   0.693   0.513
  174SOL    HW2  342   0.960   0.631   0.401
  175SOL     OW  343   0.114   0.845   0.760
  175SOL    HW1  344   0.199   0.819   0.806
  175SOL    HW2  345   0.058   0.899   0.823
  176SOL     OW  346   0.120   1.864   1.589
  176SOL    HW1  347   0.137   1.837   1.684
  176SOL    HW2  348   0.028   1.837   1.562
  177SOL     OW  349   0.898   0.365   0.236
  177SOL    HW1  350   0.939   0.430   0.172
  177SOL    HW2  351   0.880   0.279   0.188
  178SOL     OW  352   1.715   0.583   1.825
  178SOL    HW1  353   1.679   0.666   1.784
  178SOL    HW2  354   1.736   0.516   1.753
  179SOL     OW  355   1.366   1.174   0.568
  179SOL    HW1  356   1.453   1.173   0.519
  179SOL    HW2  357   1.304   1.240   0.525
  180SOL     OW  358   0.527   0.217   0.901
  180SOL    HW1  359   0.535   0.241   0.997
  180SOL    HW2  360   0.532   0.300   0.845
  181SOL     OW  361   0.967   1.429   0.500
  181SOL    HW1  362   0.929   1.499   0.440
  181SOL    HW2  363   0.982   1.467   0.591
  182SOL     OW  364   0.362   1.808   0.866
  182SOL    HW1  365   0.398   1.717   0.885
  182SOL    HW2  366   0.431   1.877   0.889
  183SOL     OW  367   1.810   1.068   0.888
  183SOL    HW1  368   1.774   1.058   0.796
  183SOL    HW2  369   1.736   1.060   0.954
  184SOL     OW  370   1.226   1.550   1.503
  184SOL    HW1  371   1.199   1.491   1.578
  184SOL    HW2  372   1.186   1.517   1.418
  185SOL     OW  373   0.314   0.930   0.244
  185SOL    HW1  374   0.400   0.951   0.199
  185SOL    HW2  375   0.298   0.831   0.241
  186SOL     OW  376   1.467   0.752   0.725
  186SOL    HW1  377   1.463   0.714   0.817
  186SOL    HW2  378   1.549   0.808   0.715
  187SOL     OW  379   0.465   1.263   1.724
  187SOL    HW1  380   0.443   1.261   1.626
  187SOL    HW2  381   0.381   1.278   1.776
  188SOL     OW  382   1.057   1.780   0.220
  188SOL    HW1  383   1.017   1.728   0.296
  188SOL    HW2  384   1.137   1.732   0.185
  189SOL     OW  385   0.171   0.277   1.511
  189SOL    HW1  386   0.082   0.320   1.499
  189SOL    HW2  387   0.174   0.231   1.600
  190SOL     OW  388   1.662   1.396   0.074
  190SOL    HW1  389   1.589   1.459   0.049
  190SOL    HW2  390   1.627   1.302   0.070
  191SOL     OW  391   0.472   1.710   0.328
  191SOL    HW1  392   0.513   1.779   0.387
  191SOL    HW2  393   0.542   1.670   0.269
  192SOL     OW  394   1.417   0.121   0.460
  192SOL    HW1  395   1.397   0.041   0.404
  192SOL    HW2  396   1.508   0.155   0.440
  193SOL     OW  397   0.263   1.788   1.225
  193SOL    HW1  398   0.309   1.712   1.270
  193SOL    HW2  399   0.216   1.755   1.143
  194SOL     OW  400   0.971   1.691   0.907
  194SOL    HW1  401   1.062   1.654   0.923
  194SOL    HW2  402   0.926   1.637   0.835
  195SOL     OW  403   0.412   0.677   0.460
  195SOL    HW1  404   0.423   0.578   0.465
  195SOL    HW2  405   0.327   0.704   0.504
  196SOL     OW  406   1.540   0.231   1.721
  196SOL    HW1  407   1.552   0.238   1.820
  196SOL    HW2  408   1.473   0.160   1.700
  197SOL     OW  409   0.619   0.103   0.082
  197SOL    HW1  410   0.716   0.105   0.106
  197SOL    HW2  411   0.601   0.171   0.011
  198SOL     OW  412   0.748   0.261   1.736
  198SOL    HW1  413   0.841   0.223   1.730
  198SOL    HW2  414   0.711   0.242   1.827
  199SOL     OW  415   0.874   1.531   1.212
  199SOL    HW1  416   0.862   1.506   1.116
  199SOL    HW2  417   0.944   1.472   1.253
  200SOL     OW  418   1.339   0.612   1.456
  200SOL    HW1  419   1.374   0.566   1.537
  200SOL    HW2  420   1.394   0.694   1.438
  201SOL     OW  421   0.822   1.403   0.936
  201SOL    HW1  422   0.915   1.391   0.900
  201SOL    HW2  423   0.757   1.399   0.860
  202SOL     OW  424   0.923   0.504   0.879
  202SOL    HW1  425   0.900   0.493   0.783
  202SOL    HW2  426   0.951   0.416   0.918
  203SOL     OW  427   0.558   0.043   0.491
  203SOL    HW1  428   0.482   0.042   0.556
  203SOL    HW2  429   0.549   0.122   0.430
  204SOL     OW  430   1.459   1.169   0.021
  204SOL    HW1  431   1.481   1.090   0.078
  204SOL    HW2  432   1.403   1.233   0.073
  205SOL     OW  433   0.304   0.051   0.182
  205SOL    HW1  434   0.387   0.105   0.166
  205SOL    HW2  435   0.327   5.041   0.189
  206SOL     OW  436   0.973   0.257   0.475
  206SOL    HW1  437   0.947   0.304   0.390
  206SOL    HW2  438   1.072   0.260   0.486
  207SOL     OW  439   1.080   0.691   1.458
  207SOL    HW1  440   1.018   0.622   1.494
  207SOL    HW2  441   1.174   0.659   1.466
  208SOL     OW  442   1.233   1.578   0.783
  208SOL    HW1  443   1.227   1.633   0.699
  208SOL    HW2  444   1.309   1.611   0.839
  209SOL     OW  445   0.467   1.122   0.727
  209SOL    HW1  446   0.408   1.096   0.803
  209SOL    HW2  447   0.425   1.093   0.641
  210SOL     OW  448   1.247   1.799   0.602
  210SOL    HW1  449   1.315   1.863   0.566
  210SOL    HW2  450   1.188   1.847   0.667
  211SOL     OW  451   1.035   0.545   0.091
  211SOL    HW1  452   1.023   0.611   0.017
  211SOL    HW2  453   1.121   0.563   0.139
  212SOL     OW  454   0.070   0.563   1.375
  212SOL    HW1  455   0.168   0.555   1.356
  212SOL    HW2  456   0.050   0.656   1.407
  213SOL     OW  457   0.528   0.265   1.175
  213SOL    HW1  458   0.594   0.218   1.233
  213SOL    HW2  459   0.435   0.246   1.208
  214SOL     OW  460   0.860   0.450   0.630
  214SOL    HW1  461   0.814   0.518   0.573
  214SOL    HW2  462   0.894   0.376   0.572
  215SOL     OW  463   0.968   0.033   0.775
  215SOL    HW1  464   0.913   0.033   0.692
  215SOL    HW2  465   1.038   5.048   0.769
  216SOL     OW  466   1.406   1.160   0.881
  216SOL    HW1  467   1.351   1.082   0.910
  216SOL    HW2  468   1.409   1.162   0.781
  217SOL     OW  469   1.468   0.604   0.990
  217SOL    HW1  470   1.408   0.524   0.991
  217SOL    HW2  471   1.536   0.595   1.062
  218SOL     OW  472   1.840   0.841   0.396
  218SOL    HW1  473   1.891   0.763   0.431
  218SOL    HW2  474   1.826   0.831   0.297
  219SOL     OW  475   0.494   1.386   0.154
  219SOL    HW1  476   0.506   1.341   0.243
  219SOL    HW2  477   0.402   1.368   0.120
  220SOL     OW  478   1.683   1.297   0.670
  220SOL    HW1  479   1.783   1.299   0.675
  220SOL    HW2  480   1.647   1.386   0.698
  221SOL     OW  481   1.402   0.573   0.079
  221SOL    HW1  482   1.351   0.561   0.165
  221SOL    HW2  483   1.464   0.496   0.067
  222SOL     OW  484   0.549   0.246   0.304
  222SOL    HW1  485   0.583   0.183   0.234
  222SOL    HW2  486   0.529   0.334   0.262
  223SOL     OW  487   1.744   1.235   1.571
  223SOL    HW1  488   1.831   1.192   1.592
  223SOL    HW2  489   1.752   1.334   1.583
  224SOL     OW  490   1.041   1.357   1.356
  224SOL    HW1  491   0.957   1.336   1.408
  224SOL    HW2  492   1.117   1.305   1.395
  225SOL     OW  493   1.613   1.611   1.634
  225SOL    HW1  494   1.616   1.663   1.549
  225SOL    HW2  495   1.692   1.548   1.638
  226SOL     OW  496   1.116   1.228   1.114
  226SOL    HW1  497   1.064   1.265   1.191
  226SOL    HW2  498   1.098   1.282   1.032
  227SOL     OW  499   1.596   1.092   1.060
  227SOL    HW1  500   1.600   1.151   1.140
  227SOL    HW2  501   1.533   1.133   0.993
  228SOL     OW  502   0.904   0.132   1.397
  228SOL    HW1  503   0.935   0.099   1.308
  228SOL    HW2  504   0.984   0.162   1.451
  229SOL     OW  505   0.988   1.113   1.732
  229SOL    HW1  506   0.896   1.125   1.769
  229SOL    HW2  507   0.989   1.036   1.668
  230SOL     OW  508   0.723   1.052   0.382
  230SOL    HW1  509   0.712   1.045   0.481
  230SOL    HW2  510   0.796   0.991   0.352
  231SOL     OW  511   0.428   0.821   1.241
  231SOL    HW1  512   0.499   0.829   1.311
  231SOL    HW2  513   0.382   0.732   1.250
  232SOL     OW  514   1.258   0.420   1.265
  232SOL    HW1  515   1.274   0.496   1.327
  232SOL    HW2  516   1.163   0.422   1.233
  233SOL     OW  517   0.053   1.595   1.293
  233SOL    HW1  518   5.085   1.614   1.374
  233SOL    HW2  519   0.150   1.589   1.318
  234SOL     OW  520   0.346   1.071   0.493
  234SOL    HW1  521   0.336   1.152   0.436
  234SOL    HW2  522   0.341   0.989   0.437
  235SOL     OW  523   0.543   0.538   0.855
  235SOL    HW1  524   0.568   0.602   0.783
  235SOL    HW2  525   0.610   0.544   0.930
  236SOL     OW  526   1.204   1.338   0.403
  236SOL    HW1  527   1.262   1.416   0.427
  236SOL    HW2  528   1.110   1.356   0.431
  237SOL     OW  529   1.297   1.464   1.168
  237SOL    HW1  530   1.361   1.476   1.244
  237SOL    HW2  531   1.249   1.376   1.178
  238SOL     OW  532   1.586   0.638   0.449
  238SOL    HW1  533   1.542   0.678   0.529
  238SOL    HW2  534   1.611   0.711   0.385
  239SOL     OW  535   0.346   1.529   1.309
  239SOL    HW1  536   0.326   1.478   1.225
  239SOL    HW2  537   0.444   1.544   1.316
  240SOL     OW  538   0.416   0.723   1.617
  240SOL    HW1  539   0.457   0.776   1.542
  240SOL    HW2  540   0.471   0.642   1.635
  241SOL     OW  541   1.631   0.782   1.670
  241SOL    HW1  542   1.537   0.812   1.684
  241SOL    HW2  543   1.673   0.835   1.597
  242SOL     OW  544   0.989   0.146   1.692
  242SOL    HW1  545   1.052   0.224   1.686
  242SOL    HW2  546   1.039   0.062   1.671
  243SOL     OW  547   0.477   0.013   1.739
  243SOL    HW1  548   0.457   5.063   1.648
  243SOL    HW2  549   0.408   0.079   1.765
  244SOL     OW  550   0.601   0.879   1.040
  244SOL    HW1  551   0.620   0.977   1.032
  244SOL    HW2  552   0.540   0.862   1.117
  245SOL     OW  553   1.328   0.843   1.032
  245SOL    HW1  554   1.240   0.810   0.999
  245SOL    HW2  555   1.394   0.768   1.033
  246SOL     OW  556   1.233   0.512   0.286
  246SOL    HW1  557   1.252   0.434   0.345
  246SOL    HW2  558   1.178   0.579   0.336
  247SOL     OW  559   0.279   0.194   1.271
  247SOL    HW1  560   0.243   0.229   1.358
  247SOL    HW2  561   0.234   0.107   1.250
  248SOL     OW  562   0.101   1.324   1.262
  248SOL    HW1  563   0.068   1.281   1.346
  248SOL    HW2  564   0.080   1.422   1.264
  249SOL     OW  565   0.737   0.619   1.044
  249SOL    HW1  566   0.812   0.594   0.984
  249SOL    HW2  567   0.712   0.715   1.029
  250SOL     OW  568   1.765   0.960   1.848
  250SOL    HW1  569   1.723   0.899   1.781
  250SOL    HW2  570   1.700   0.977   1.922
  251SOL     OW  571   0.321   0.055   0.621
  251SOL    HW1  572   0.293   0.145   0.653
  251SOL    HW2  573   0.287   5.072   0.683
  252SOL     OW  574   1.587   0.388   0.354
  252SOL    HW1  575   1.639   0.323   0.409
  252SOL    HW2  576   1.579   0.475   0.403
  253SOL     OW  577   1.063   0.730   0.971
  253SOL    HW1  578   1.040   0.750   1.066
  253SOL    HW2  579   1.024   0.641   0.945
  254SOL     OW  580   0.967   1.570   1.696
  254SOL    HW1  581   0.948   1.615   1.608
  254SOL    HW2  582   1.006   1.479   1.679
  255SOL     OW  583   1.850   1.488   1.595
  255SOL    HW1  584   1.871   1.512   1.500
  255SOL    HW2  585   1.925   1.517   1.654
  256SOL     OW  586   0.363   0.896   1.809
  256SOL    HW1  587   0.443   0.929   1.860
  256SOL    HW2  588   0.393   0.825   1.744
  257SOL     OW  589   1.488   0.247   0.147
  257SOL    HW1  590   1.408   0.200   0.185
  257SOL    HW2  591   1.530   0.304   0.218
  258SOL     OW  592   1.307   0.831   0.038
  258SOL    HW1  593   1.355   0.744   0.025
  258SOL    HW2  594   1.312   0.885   5.040
  259SOL     OW  595   1.078   1.366   0.876
  259SOL    HW1  596   1.086   1.285   0.818
  259SOL    HW2  597   1.137   1.439   0.840
  260SOL     OW  598   0.317   0.804   0.944
  260SOL    HW1  599   0.417   0.807   0.939
  260SOL    HW2  600   0.288   0.721   0.991
  261SOL     OW  601   0.335   0.540   1.015
  261SOL    HW1  602   0.295   0.448   1.010
  261SOL    HW2  603   0.409   0.548   0.948
  262SOL     OW  604   1.155   0.366   1.653
  262SOL    HW1  605   1.099   0.414   1.721
  262SOL    HW2  606   1.249   0.400   1.657
  263SOL     OW  607   1.173   0.209   1.450
  263SOL    HW1  608   1.163   0.269   1.530
  263SOL    HW2  609   1.215   0.261   1.375
  264SOL     OW  610   5.068   1.313   0.188
  264SOL    HW1  611   5.008   1.344   0.261
  264SOL    HW2  612   0.013   1.220   0.208
  265SOL     OW  613   0.106   1.781   0.941
  265SOL    HW1  614   0.050   1.756   0.863
  265SOL    HW2  615   0.202   1.791   0.913
  266SOL     OW  616   0.499   1.583   0.923
  266SOL    HW1  617   0.576   1.644   0.941
  266SOL    HW2  618   0.529   1.510   0.862
  267SOL     OW  619   0.953   0.747   1.229
  267SOL    HW1  620   1.010   0.735   1.310
  267SOL    HW2  621   0.857   0.729   1.253
  268SOL     OW  622   0.077   0.622   1.102
  268SOL    HW1  623   0.134   0.553   1.058
  268SOL    HW2  624   0.064   0.599   1.198
  269SOL     OW  625   0.187   0.504   1.705
  269SOL    HW1  626   0.259   0.475   1.641
  269SOL    HW2  627   0.157   0.596   1.682
  270SOL     OW  628   1.385   0.937   1.634
  270SOL    HW1  629   1.417   1.031   1.644
  270SOL    HW2  630   1.392   0.909   1.539
  271SOL     OW  631   0.800   0.574   0.376
  271SOL    HW1  632   0.825   0.494   0.322
  271SOL    HW2  633   0.730   0.627   0.328
  272SOL     OW  634   1.654   0.626   1.196
  272SOL    HW1  635   1.616   0.563   1.264
  272SOL    HW2  636   1.735   0.585   1.154
  273SOL     OW  637   0.261   1.555   1.721
  273SOL    HW1  638   0.230   1.631   1.778
  273SOL    HW2  639   0.238   1.468   1.766
  274SOL     OW  640   0.681   0.478   1.267
  274SOL    HW1  641   0.616   0.407   1.243
  274SOL    HW2  642   0.698   0.537   1.187
  275SOL     OW  643   0.898   1.684   1.461
  275SOL    HW1  644   0.890   1.641   1.372
  275SOL    HW2  645   0.909   1.783   1.450
  276SOL     OW  646   0.465   0.483   0.179
  276SOL    HW1  647   0.510   0.566   0.211
  276SOL    HW2  648   0.375   0.474   0.220
  277SOL     OW  649   0.158   1.130   1.482
  277SOL    HW1  650   0.161   1.076   1.566
  277SOL    HW2  651   0.176   1.070   1.403
  278SOL     OW  652   1.308   1.041   1.220
  278SOL    HW1  653   1.326   0.970   1.151
  278SOL    HW2  654   1.231   1.097   1.190
  279SOL     OW  655   1.309   0.844   0.307
  279SOL    HW1  656   1.227   0.804   0.349
  279SOL    HW2  657   1.304   0.835   0.208
  280SOL     OW  658   1.758   1.740   1.133
  280SOL    HW1  659   1.837   1.763   1.077
  280SOL    HW2  660   1.736   1.643   1.123
  281SOL     OW  661   1.247   1.725   1.109
  281SOL    HW1  662   1.336   1.755   1.074
  281SOL    HW2  663   1.251   1.628   1.133
  282SOL     OW  664   0.091   1.211   1.027
  282SOL    HW1  665   0.097   1.248   1.120
  282SOL    HW2  666   5.086   1.230   0.991
  283SOL     OW  667   0.671   1.645   1.763
  283SOL    HW1  668   0.613   1.717   1.725
  283SOL    HW2  669   0.764   1.656   1.729
  284SOL     OW  670   0.886   0.123   0.125
  284SOL    HW1  671   0.978   0.144   0.091
  284SOL    HW2  672   0.892   0.053   0.197
  285SOL     OW  673   1.717   0.160   0.475
  285SOL    HW1  674   1.804   0.143   0.429
  285SOL    HW2  675   1.710   0.104   0.557
  286SOL     OW  676   1.359   1.562   0.497
  286SOL    HW1  677   1.438   1.566   0.436
  286SOL    HW2  678   1.321   1.653   0.509
  287SOL     OW  679   0.147   1.770   1.855
  287SOL    HW1  680   0.100   1.693   1.899
  287SOL    HW2  681   0.208   1.813   1.922
  288SOL     OW  682   1.258   0.932   0.631
  288SOL    HW1  683   1.331   0.872   0.662
  288SOL    HW2  684   1.298   1.014   0.590
  289SOL     OW  685   0.789   1.273   1.444
  289SOL    HW1  686   0.753   1.326   1.521
  289SOL    HW2  687   0.732   1.290   1.363
  290SOL     OW  688   0.669   1.604   0.185
  290SOL    HW1  689   0.683   1.654   0.099
  290SOL    HW2  690   0.629   1.514   0.166
  291SOL     OW  691   1.631   1.723   1.388
  291SOL    HW1  692   1.681   1.725   1.301
  291SOL    HW2  693   1.613   1.817   1.417
  292SOL     OW  694   1.862   0.169   0.964
  292SOL    HW1  695   1.869   0.087   0.908
  292SOL    HW2  696   1.776   0.216   0.945
  293SOL     OW  697   0.248   0.290   0.730
  293SOL    HW1  698   0.168   0.336   0.692
  293SOL    HW2  699   0.250   0.302   0.829
  294SOL     OW  700   1.211   1.605   0.081
  294SOL    HW1  701   1.208   1.507   0.102
  294SOL    HW2  702   1.165   1.621   5.080
  295SOL     OW  703   0.820   1.015   1.389
  295SOL    HW1  704   0.840   1.013   1.291
  295SOL    HW2  705   0.819   1.110   1.421
  296SOL     OW  706   0.917   0.905   0.289
  296SOL    HW1  707   0.984   0.942   0.225
  296SOL    HW2  708   0.955   0.824   0.334
  297SOL     OW  709   1.463   1.568   0.003
  297SOL    HW1  710   1.378   1.595   0.048
  297SOL    HW2  711   1.524   1.646   5.084
  298SOL     OW  712   0.382   1.271   1.463
  298SOL    HW1  713   0.361   1.358   1.418
  298SOL    HW2  714   0.299   1.215   1.467
  299SOL     OW  715   1.598   1.292   1.284
  299SOL    HW1  716   1.656   1.271   1.363
  299SOL    HW2  717   1.532   1.363   1.309
  300SOL     OW  718   1.052   1.142   0.727
  300SOL    HW1  719   0.982   1.081   0.763
  300SOL    HW2  720   1.118   1.089   0.673
  301SOL     OW  721   1.034   0.217   0.969
  301SOL    HW1  722   1.031   0.173   0.879
  301SOL    HW2  723   1.012   0.150   1.040
  302SOL     OW  724   0.597   1.468   0.482
  302SOL    HW1  725   0.668   1.445   0.416
  302SOL    HW2  726   0.533   1.533   0.441
  303SOL     OW  727   1.708   0.356   1.374
  303SOL    HW1  728   1.765   0.439   1.374
  303SOL    HW2  729   1.744   0.291   1.307
  304SOL     OW  730   0.302   1.278   0.340
  304SOL    HW1  731   0.272   1.300   0.247
  304SOL    HW2  732   0.266   1.346   0.403
  305SOL     OW  733   0.152   1.043   1.740
  305SOL    HW1  734   0.069   1.007   1.783
  305SOL    HW2  735   0.231   0.992   1.772
  306SOL     OW  736   0.657   0.224   1.468
  306SOL    HW1  737   0.742   0.194   1.426
  306SOL    HW2  738   0.669   0.234   1.567
  307SOL     OW  739   0.087   0.329   5.078
  307SOL    HW1  740   5.082   0.306   0.024
  307SOL    HW2  741   0.101   0.428   0.000
  308SOL     OW  742   1.451   0.865   1.384
  308SOL    HW1  743   1.396   0.926   1.326
  308SOL    HW2  744   1.548   0.884   1.370
  309SOL     OW  745   0.039   0.173   0.317
  309SOL    HW1  746   0.029   0.219   0.229
  309SOL    HW2  747   0.117   0.111   0.313
  310SOL     OW  748   1.195   1.335   0.125
  310SOL    HW1  749   1.097   1.324   0.108
  310SOL    HW2  750   1.213   1.325   0.223
  311SOL     OW  751   0.618   0.826   1.422
  311SOL    HW1  752   0.664   0.914   1.434
  311SOL    HW2  753   0.682   0.752   1.441
  312SOL     OW  754   1.513   1.776   0.974
  312SOL    HW1  755   1.554   1.797   0.885
  312SOL    HW2  756   1.585   1.754   1.040
  313SOL     OW  757   0.688   0.585   1.732
  313SOL    HW1  758   0.734   0.667   1.768
  313SOL    HW2  759   0.733   0.503   1.768
  314SOL     OW  760   1.482   1.184   1.629
  314SOL    HW1  761   1.471   1.186   1.728
  314SOL    HW2  762   1.579   1.191   1.606
  315SOL     OW  763   0.370   1.728   1.554
  315SOL    HW1  764   0.286   1.779   1.541
  315SOL    HW2  765   0.350   1.642   1.601
  316SOL     OW  766   1.694   0.893   1.235
  316SOL    HW1  767   1.678   0.797   1.213
  316SOL    HW2  768   1.657   0.951   1.162
  317SOL     OW  769   1.242   0.324   0.478
  317SOL    HW1  770   1.301   0.243   0.476
  317SOL    HW2  771   1.268   0.382   0.556
  318SOL     OW  772   0.613   0.722   0.660
  318SOL    HW1  773   0.649   0.815   0.657
  318SOL    HW2  774   0.545   0.710   0.587
  319SOL     OW  775   1.753   0.383   1.641
  319SOL    HW1  776   1.730   0.388   1.544
  319SOL    HW2  777   1.690   0.321   1.688
  320SOL     OW  778   1.735   0.952   1.495
  320SOL    HW1  779   1.749   1.051   1.506
  320SOL    HW2  780   1.750   0.927   1.399
  321SOL     OW  781   0.921   1.366   0.070
  321SOL    HW1  782   0.854   1.349   0.141
  321SOL    HW2  783   0.911   1.460   0.036
  322SOL     OW  784   0.652   1.819   0.920
  322SOL    HW1  785   0.637   1.915   0.899
  322SOL    HW2  786   0.748   1.796   0.908
  323SOL     OW  787   0.884   0.960   0.840
  323SOL    HW1  788   0.929   0.878   0.875
  323SOL    HW2  789   0.846   1.013   0.916
  324SOL     OW  790   1.089   0.986   0.074
  324SOL    HW1  791   1.110   1.067   0.018
  324SOL    HW2  792   1.168   0.924   0.073
  325SOL     OW  793   1.840   1.570   0.854
  325SOL    HW1  794   1.753   1.550   0.809
  325SOL    HW2  795   1.873   1.487   0.900
  326SOL     OW  796   0.219   1.323   1.844
  326SOL    HW1  797   0.177   1.247   1.794
  326SOL    HW2  798   0.180   1.328   1.936
  327SOL     OW  799   0.079   1.225   0.664
  327SOL    HW1  800   0.152   1.249   0.727
  327SOL    HW2  801   0.118   1.185   0.581
  328SOL     OW  802   0.668   1.409   1.632
  328SOL    HW1  803   0.594   1.346   1.657
  328SOL    HW2  804   0.655   1.496   1.680
  329SOL     OW  805   1.791   0.158   1.222
  329SOL    HW1  806   1.766   0.062   1.235
  329SOL    HW2  807   1.817   0.173   1.127
  330SOL     OW  808   0.412   0.409   0.524
  330SOL    HW1  809   0.492   0.357   0.494
  330SOL    HW2  810   0.379   0.374   0.611
  331SOL     OW  811   1.689   1.490   1.107
  331SOL    HW1  812   1.614   1.455   1.050
  331SOL    HW2  813   1.712   1.422   1.177
  332SOL     OW  814   0.329   0.569   1.280
  332SOL    HW1  815   0.392   0.516   1.338
  332SOL    HW2  816   0.345   0.546   1.184
  333SOL     OW  817   0.825   1.610   0.665
  333SOL    HW1  818   0.824   1.629   0.567
  333SOL    HW2  819   0.744   1.555   0.689
  334SOL     OW  820   1.388   0.211   1.155
  334SOL    HW1  821   1.469   0.186   1.209
  334SOL    HW2  822   1.339   0.286   1.200
  335SOL     OW  823   0.996   0.021   1.169
  335SOL    HW1  824   0.941   5.033   1.131
  335SOL    HW2  825   1.080   5.070   1.208
  336SOL     OW  826   0.781   1.324   0.320
  336SOL    HW1  827   0.743   1.232   0.328
  336SOL    HW2  828   0.854   1.336   0.388
  337SOL     OW  829   0.611   1.563   1.293
  337SOL    HW1  830   0.603   1.650   1.342
  337SOL    HW2  831   0.706   1.550   1.263
  338SOL     OW  832   1.302   0.033   0.177
  338SOL    HW1  833   1.358   5.062   0.118
  338SOL    HW2  834   1.238   0.086   0.122
  339SOL     OW  835   1.281   0.473   0.700
  339SOL    HW1  836   1.225   0.554   0.681
  339SOL    HW2  837   1.281   0.455   0.798
  340SOL     OW  838   1.623   0.293   0.931
  340SOL    HW1  839   1.565   0.211   0.932
  340SOL    HW2  840   1.615   0.338   0.843
  341SOL     OW  841   0.060   1.064   0.272
  341SOL    HW1  842   0.150   1.022   0.259
  341SOL    HW2  843   0.003   1.004   0.329
  342SOL     OW  844   0.865   1.641   0.370
  342SOL    HW1  845   0.801   1.627   0.294
  342SOL    HW2  846   0.850   1.730   0.411
  343SOL     OW  847   0.218   0.625   1.980
  343SOL    HW1  848   0.155   0.554   2.012
  343SOL    HW2  849   0.234   0.613   1.882
  344SOL     OW  850   0.239   0.294   2.884
  344SOL    HW1  851   0.258   0.264   2.978
  344SOL    HW2  852   0.144   0.273   2.861
  345SOL     OW  853   0.017   0.412   2.510
  345SOL    HW1  854   5.052   0.468   2.575
  345SOL    HW2  855   5.072   0.317   2.515
  346SOL     OW  856   0.577   1.323   3.035
  346SOL    HW1  857   0.487   1.315   2.991
  346SOL    HW2  858   0.585   1.412   3.079
  347SOL     OW  859   1.535   1.529   2.582
  347SOL    HW1  860   1.504   1.496   2.671
  347SOL    HW2  861   1.464   1.511   2.513
  348SOL     OW  862   1.124   0.696   2.569
  348SOL    HW1  863   1.161   0.787   2.548
  348SOL    HW2  864   1.100   0.692   2.666
  349SOL     OW  865   1.778   0.619   2.084
  349SOL    HW1  866   1.756   0.618   1.986
  349SOL    HW2  867   1.728   0.546   2.130
  350SOL     OW  868   0.777   1.163   2.933
  350SOL    HW1  869   0.701   1.212   2.976
  350SOL    HW2  870   0.818   1.220   2.862
  351SOL     OW  871   0.887   0.760   3.670
  351SOL    HW1  872   0.852   0.821   3.741
  351SOL    HW2  873   0.906   0.812   3.587
  352SOL     OW  874   0.696   0.990   2.516
  352SOL    HW1  875   0.768   0.981   2.585
  352SOL    HW2  876   0.622   1.048   2.552
  353SOL     OW  877   0.714   1.163   3.677
  353SOL    HW1  878   0.767   1.238   3.716
  353SOL    HW2  879   0.629   1.199   3.637
  354SOL     OW  880   0.318   1.452   2.933
  354SOL    HW1  881   0.262   1.389   2.879
  354SOL    HW2  882   0.378   1.504   2.871
  355SOL     OW  883   1.479   1.507   3.242
  355SOL    HW1  884   1.539   1.586   3.255
  355SOL    HW2  885   1.400   1.515   3.303
  356SOL     OW  886   0.444   0.414   3.369
  356SOL    HW1  887   0.535   0.378   3.348
  356SOL    HW2  888   0.377   0.340   3.358
  357SOL     OW  889   1.644   0.465   2.608
  357SOL    HW1  890   1.584   0.487   2.531
  357SOL    HW2  891   1.615   0.516   2.689
  358SOL     OW  892   0.217   1.702   2.317
  358SOL    HW1  893   0.232   1.774   2.385
  358SOL    HW2  894   0.281   1.714   2.241
  359SOL     OW  895   1.122   1.351   3.528
  359SOL    HW1  896   1.179   1.351   3.610
  359SOL    HW2  897   1.074   1.264   3.520
  360SOL     OW  898   0.231   1.424   2.397
  360SOL    HW1  899   0.224   1.521   2.374
  360SOL    HW2  900   0.143   1.392   2.432
  361SOL     OW  901   0.289   1.078   2.782
  361SOL    HW1  902   0.287   0.985   2.821
  361SOL    HW2  903   0.224   1.136   2.831
  362SOL     OW  904   0.591   1.808   3.272
  362SOL    HW1  905   0.515   1.774   3.327
  362SOL    HW2  906   0.621   1.896   3.308
  363SOL     OW  907   0.569   0.980   1.977
  363SOL    HW1  908   0.626   1.000   1.898
  363SOL    HW2  909   0.614   1.015   2.060
  364SOL     OW  910   1.606   0.117   3.354
  364SOL    HW1  911   1.576   0.175   3.278
  364SOL    HW2  912   1.591   0.165   3.440
  365SOL     OW  913   0.151   0.640   2.441
  365SOL    HW1  914   0.099   0.555   2.450
  365SOL    HW2  915   0.114   0.709   2.503
  366SOL     OW  916   1.842   1.724   2.215
  366SOL    HW1  917   1.911   1.700   2.284
  366SOL    HW2  918   1.857   1.818   2.185
  367SOL     OW  919   0.027   1.583   2.018
  367SOL    HW1  920   0.014   1.484   2.027
  367SOL    HW2  921   5.042   1.630   2.068
  368SOL     OW  922   1.675   0.912   2.504
  368SOL    HW1  923   1.763   0.867   2.487
  368SOL    HW2  924   1.649   0.967   2.425
  369SOL     OW  925   1.647   1.125   2.304
  369SOL    HW1  926   1.740   1.111   2.271
  369SOL    HW2  927   1.647   1.194   2.377
  370SOL     OW  928   0.114   0.759   3.499
  370SOL    HW1  929   0.199   0.806   3.521
  370SOL    HW2  930   0.080   0.792   3.411
  371SOL     OW  931   0.617   1.383   2.623
  371SOL    HW1  932   0.588   1.289   2.642
  371SOL    HW2  933   0.600   1.404   2.527
  372SOL     OW  934   1.289   1.234   3.283
  372SOL    HW1  935   1.311   1.166   3.213
  372SOL    HW2  936   1.347   1.219   3.363
  373SOL     OW  937   0.823   0.010   2.366
  373SOL    HW1  938   0.841   0.108   2.357
  373SOL    HW2  939   0.725   5.083   2.380
  374SOL     OW  940   0.205   0.978   3.105
  374SOL    HW1  941   0.294   0.934   3.096
  374SOL    HW2  942   0.152   0.965   3.021
  375SOL     OW  943   1.551   0.978   2.052
  375SOL    HW1  944   1.474   0.917   2.074
  375SOL    HW2  945   1.578   1.027   2.134
  376SOL     OW  946   1.176   1.809   3.478
  376SOL    HW1  947   1.181   1.887   3.416
  376SOL    HW2  948   1.197   1.725   3.428
  377SOL     OW  949   0.304   0.236   3.664
  377SOL    HW1  950   0.369   0.311   3.680
  377SOL    HW2  951   0.218   0.255   3.710
  378SOL     OW  952   1.460   1.425   2.820
  378SOL    HW1  953   1.403   1.451   2.898
  378SOL    HW2  954   1.436   1.333   2.790
  379SOL     OW  955   1.638   1.742   2.455
  379SOL    HW1  956   1.629   1.708   2.361
  379SOL    HW2  957   1.615   1.669   2.519
  380SOL     OW  958   0.591   0.726   2.129
  380SOL    HW1  959   0.600   0.803   2.066
  380SOL    HW2  960   0.521   0.747   2.198
  381SOL     OW  961   1.274   0.387   2.820
  381SOL    HW1  962   1.183   0.344   2.822
  381SOL    HW2  963   1.332   0.345   2.890
  382SOL     OW  964   1.576   1.650   2.163
  382SOL    HW1  965   1.672   1.663   2.185
  382SOL    HW2  966   1.564   1.653   2.064
  383SOL     OW  967   0.794   0.628   3.316
  383SOL    HW1  968   0.779   0.600   3.410
  383SOL    HW2  969   0.754   0.559   3.254
  384SOL     OW  970   1.396   0.463   3.534
  384SOL    HW1  971   1.390   0.514   3.620
  384SOL    HW2  972   1.453   0.382   3.547
  385SOL     OW  973   0.947   0.888   3.444
  385SOL    HW1  974   0.996   0.809   3.409
  385SOL    HW2  975   0.904   0.937   3.368
  386SOL     OW  976   0.993   0.414   3.082
  386SOL    HW1  977   0.912   0.456   3.124
  386SOL    HW2  978   0.964   0.354   3.007
  387SOL     OW  979   1.037   0.683   2.271
  387SOL    HW1  980   1.056   0.692   2.369
  387SOL    HW2  981   0.952   0.632   2.258
  388SOL     OW  982   0.121   0.849   2.629
  388SOL    HW1  983   0.209   0.815   2.662
  388SOL    HW2  984   0.077   0.904   2.700
  389SOL     OW  985   0.126   1.885   3.453
  389SOL    HW1  986   0.140   1.856   3.548
  389SOL    HW2  987   0.038   1.849   3.420
  390SOL     OW  988   0.863   0.351   2.097
  390SOL    HW1  989   0.903   0.405   2.023
  390SOL    HW2  990   0.879   0.254   2.079
  391SOL     OW  991   1.719   0.569   3.688
  391SOL    HW1  992   1.677   0.653   3.653
  391SOL    HW2  993   1.749   0.512   3.612
  392SOL     OW  994   1.354   1.167   2.424
  392SOL    HW1  995   1.436   1.150   2.370
  392SOL    HW2  996   1.295   1.231   2.375
  393SOL     OW  997   0.542   0.204   2.766
  393SOL    HW1  998   0.549   0.225   2.863
  393SOL    HW2  999   0.520   0.287   2.715
  394SOL     OW 1000   0.976   1.456   2.363
  394SOL    HW1 1001   0.946   1.516   2.289
  394SOL    HW2 1002   0.955   1.499   2.451
  395SOL     OW 1003   0.367   1.813   2.729
  395SOL    HW1 1004   0.409   1.726   2.753
  395SOL    HW2 1005   0.432   1.887   2.745
  396SOL     OW 1006   1.808   1.048   2.739
  396SOL    HW1 1007   1.762   1.036   2.651
  396SOL    HW2 1008   1.741   1.041   2.813
  397SOL     OW 1009   1.220   1.566   3.351
  397SOL    HW1 1010   1.199   1.508   3.429
  397SOL    HW2 1011   1.178   1.527   3.269
  398SOL     OW 1012   0.331   0.925   2.121
  398SOL    HW1 1013   0.405   0.948   2.057
  398SOL    HW2 1014   0.292   0.837   2.096
  399SOL     OW 1015   1.476   0.746   2.578
  399SOL    HW1 1016   1.474   0.714   2.673
  399SOL    HW2 1017   1.555   0.807   2.566
  400SOL     OW 1018   0.476   1.255   3.585
  400SOL    HW1 1019   0.452   1.257   3.488
  400SOL    HW2 1020   0.393   1.266   3.640
  401SOL     OW 1021   1.122   1.757   2.108
  401SOL    HW1 1022   1.043   1.715   2.152
  401SOL    HW2 1023   1.141   1.712   2.021
  402SOL     OW 1024   0.165   0.282   3.379
  402SOL    HW1 1025   0.069   0.311   3.373
  402SOL    HW2 1026   0.180   0.234   3.465
  403SOL     OW 1027   1.621   1.372   1.951
  403SOL    HW1 1028   1.578   1.461   1.934
  403SOL    HW2 1029   1.559   1.299   1.921
  404SOL     OW 1030   0.475   1.716   2.190
  404SOL    HW1 1031   0.521   1.776   2.255
  404SOL    HW2 1032   0.543   1.674   2.129
  405SOL     OW 1033   1.420   0.101   2.301
  405SOL    HW1 1034   1.380   0.066   2.216
  405SOL    HW2 1035   1.518   0.117   2.288
  406SOL     OW 1036   0.273   1.783   3.089
  406SOL    HW1 1037   0.322   1.712   3.138
  406SOL    HW2 1038   0.221   1.742   3.014
  407SOL     OW 1039   0.958   1.685   2.765
  407SOL    HW1 1040   1.046   1.640   2.784
  407SOL    HW2 1041   0.914   1.640   2.688
  408SOL     OW 1042   0.404   0.686   2.341
  408SOL    HW1 1043   0.428   0.588   2.340
  408SOL    HW2 1044   0.312   0.697   2.376
  409SOL     OW 1045   1.531   0.230   3.582
  409SOL    HW1 1046   1.545   0.241   3.680
  409SOL    HW2 1047   1.478   0.147   3.565
  410SOL     OW 1048   0.613   0.131   1.938
  410SOL    HW1 1049   0.663   0.065   1.995
  410SOL    HW2 1050   0.574   0.084   1.859
  411SOL     OW 1051   0.766   0.277   3.623
  411SOL    HW1 1052   0.847   0.221   3.607
  411SOL    HW2 1053   0.711   0.235   3.695
  412SOL     OW 1054   0.875   1.539   3.065
  412SOL    HW1 1055   0.865   1.512   2.969
  412SOL    HW2 1056   0.941   1.478   3.110
  413SOL     OW 1057   1.326   0.608   3.311
  413SOL    HW1 1058   1.365   0.564   3.392
  413SOL    HW2 1059   1.376   0.693   3.292
  414SOL     OW 1060   0.825   1.404   2.801
  414SOL    HW1 1061   0.915   1.396   2.759
  414SOL    HW2 1062   0.755   1.401   2.729
  415SOL     OW 1063   0.931   0.529   2.741
  415SOL    HW1 1064   0.893   0.527   2.649
  415SOL    HW2 1065   0.958   0.437   2.768
  416SOL     OW 1066   0.552   0.037   2.356
  416SOL    HW1 1067   0.468   0.030   2.410
  416SOL    HW2 1068   0.544   0.112   2.290
  417SOL     OW 1069   1.447   1.171   1.891
  417SOL    HW1 1070   1.476   1.092   1.945
  417SOL    HW2 1071   1.354   1.198   1.918
  418SOL     OW 1072   0.283   0.047   2.081
  418SOL    HW1 1073   0.318   0.097   2.002
  418SOL    HW2 1074   0.336   5.049   2.093
  419SOL     OW 1075   0.932   0.270   2.363
  419SOL    HW1 1076   0.910   0.323   2.281
  419SOL    HW2 1077   1.031   0.263   2.372
  420SOL     OW 1078   1.074   0.695   3.320
  420SOL    HW1 1079   1.010   0.619   3.332
  420SOL    HW2 1080   1.167   0.660   3.316
  421SOL     OW 1081   1.227   1.586   2.652
  421SOL    HW1 1082   1.226   1.647   2.572
  421SOL    HW2 1083   1.312   1.600   2.702
  422SOL     OW 1084   0.471   1.127   2.591
  422SOL    HW1 1085   0.405   1.097   2.661
  422SOL    HW2 1086   0.435   1.105   2.500
  423SOL     OW 1087   1.252   1.800   2.469
  423SOL    HW1 1088   1.307   1.866   2.417
  423SOL    HW2 1089   1.191   1.848   2.531
  424SOL     OW 1090   0.065   0.560   3.237
  424SOL    HW1 1091   0.163   0.552   3.214
  424SOL    HW2 1092   0.046   0.653   3.268
  425SOL     OW 1093   0.532   0.273   3.034
  425SOL    HW1 1094   0.595   0.220   3.089
  425SOL    HW2 1095   0.439   0.260   3.068
  426SOL     OW 1096   0.813   0.481   2.509
  426SOL    HW1 1097   0.780   0.541   2.436
  426SOL    HW2 1098   0.838   0.392   2.470
  427SOL     OW 1099   0.957   0.021   2.606
  427SOL    HW1 1100   0.913   0.042   2.519
  427SOL    HW2 1101   1.009   5.023   2.598
  428SOL     OW 1102   1.409   1.171   2.744
  428SOL    HW1 1103   1.359   1.090   2.776
  428SOL    HW2 1104   1.411   1.171   2.644
  429SOL     OW 1105   1.484   0.596   2.835
  429SOL    HW1 1106   1.412   0.527   2.843
  429SOL    HW2 1107   1.542   0.593   2.917
  430SOL     OW 1108   1.846   0.836   2.230
  430SOL    HW1 1109   1.899   0.796   2.305
  430SOL    HW2 1110   1.822   0.764   2.165
  431SOL     OW 1111   0.480   1.393   2.026
  431SOL    HW1 1112   0.391   1.388   2.071
  431SOL    HW2 1113   0.473   1.358   1.933
  432SOL     OW 1114   1.678   1.294   2.520
  432SOL    HW1 1115   1.778   1.297   2.519
  432SOL    HW2 1116   1.642   1.383   2.547
  433SOL     OW 1117   1.418   0.603   1.932
  433SOL    HW1 1118   1.361   0.577   2.010
  433SOL    HW2 1119   1.509   0.564   1.943
  434SOL     OW 1120   0.528   0.239   2.171
  434SOL    HW1 1121   0.558   0.190   2.090
  434SOL    HW2 1122   0.501   0.332   2.146
  435SOL     OW 1123   1.738   1.232   3.440
  435SOL    HW1 1124   1.832   1.197   3.441
  435SOL    HW2 1125   1.740   1.332   3.451
  436SOL     OW 1126   1.037   1.378   3.220
  436SOL    HW1 1127   0.951   1.348   3.262
  436SOL    HW2 1128   1.112   1.324   3.257
  437SOL     OW 1129   1.630   1.632   3.503
  437SOL    HW1 1130   1.626   1.673   3.412
  437SOL    HW2 1131   1.708   1.569   3.508
  438SOL     OW 1132   1.129   1.241   2.967
  438SOL    HW1 1133   1.058   1.252   3.036
  438SOL    HW2 1134   1.099   1.286   2.882
  439SOL     OW 1135   1.589   1.094   2.932
  439SOL    HW1 1136   1.604   1.161   3.005
  439SOL    HW2 1137   1.526   1.132   2.864
  440SOL     OW 1138   0.909   0.132   3.251
  440SOL    HW1 1139   0.932   0.099   3.160
  440SOL    HW2 1140   0.992   0.161   3.298
  441SOL     OW 1141   0.992   1.112   3.593
  441SOL    HW1 1142   0.899   1.129   3.626
  441SOL    HW2 1143   0.991   1.034   3.530
  442SOL     OW 1144   0.729   1.051   2.204
  442SOL    HW1 1145   0.718   1.031   2.302
  442SOL    HW2 1146   0.807   0.999   2.169
  443SOL     OW 1147   0.423   0.812   3.116
  443SOL    HW1 1148   0.494   0.825   3.186
  443SOL    HW2 1149   0.384   0.721   3.126
  444SOL     OW 1150   1.258   0.413   3.133
  444SOL    HW1 1151   1.279   0.494   3.188
  444SOL    HW2 1152   1.162   0.418   3.103
  445SOL     OW 1153   0.057   1.594   3.167
  445SOL    HW1 1154   5.080   1.607   3.243
  445SOL    HW2 1155   0.150   1.590   3.202
  446SOL     OW 1156   0.357   1.102   2.346
  446SOL    HW1 1157   0.357   1.184   2.288
  446SOL    HW2 1158   0.349   1.021   2.288
  447SOL     OW 1159   0.553   0.538   2.720
  447SOL    HW1 1160   0.582   0.586   2.637
  447SOL    HW2 1161   0.620   0.556   2.793
  448SOL     OW 1162   1.219   1.354   2.255
  448SOL    HW1 1163   1.269   1.435   2.288
  448SOL    HW2 1164   1.123   1.360   2.283
  449SOL     OW 1165   1.302   1.463   3.035
  449SOL    HW1 1166   1.366   1.463   3.112
  449SOL    HW2 1167   1.251   1.377   3.034
  450SOL     OW 1168   1.588   0.618   2.328
  450SOL    HW1 1169   1.530   0.654   2.401
  450SOL    HW2 1170   1.598   0.687   2.256
  451SOL     OW 1171   0.355   1.509   3.189
  451SOL    HW1 1172   0.331   1.477   3.097
  451SOL    HW2 1173   0.453   1.524   3.195
  452SOL     OW 1174   0.435   0.726   3.466
  452SOL    HW1 1175   0.493   0.772   3.398
  452SOL    HW2 1176   0.458   0.629   3.468
  453SOL     OW 1177   1.626   0.784   3.555
  453SOL    HW1 1178   1.533   0.822   3.562
  453SOL    HW2 1179   1.673   0.825   3.477
  454SOL     OW 1180   0.989   0.127   3.566
  454SOL    HW1 1181   1.048   0.203   3.541
  454SOL    HW2 1182   1.021   0.043   3.522
  455SOL     OW 1183   0.474   0.010   3.603
  455SOL    HW1 1184   0.457   5.058   3.513
  455SOL    HW2 1185   0.409   0.084   3.621
  456SOL     OW 1186   0.607   0.874   2.915
  456SOL    HW1 1187   0.627   0.971   2.904
  456SOL    HW2 1188   0.545   0.862   2.993
  457SOL     OW 1189   1.353   0.843   2.885
  457SOL    HW1 1190   1.261   0.816   2.855
  457SOL    HW2 1191   1.412   0.763   2.889
  458SOL     OW 1192   1.245   0.520   2.138
  458SOL    HW1 1193   1.242   0.438   2.195
  458SOL    HW2 1194   1.156   0.564   2.138
  459SOL     OW 1195   0.281   0.201   3.140
  459SOL    HW1 1196   0.237   0.236   3.222
  459SOL    HW2 1197   0.239   0.114   3.114
  460SOL     OW 1198   0.103   1.324   3.124
  460SOL    HW1 1199   0.079   1.285   3.213
  460SOL    HW2 1200   0.084   1.422   3.125
  461SOL     OW 1201   0.743   0.625   2.910
  461SOL    HW1 1202   0.816   0.606   2.845
  461SOL    HW2 1203   0.713   0.720   2.900
  462SOL     OW 1204   1.767   0.969   3.717
  462SOL    HW1 1205   1.725   0.915   3.644
  462SOL    HW2 1206   1.702   0.982   3.791
  463SOL     OW 1207   0.304   0.033   2.471
  463SOL    HW1 1208   0.276   0.128   2.486
  463SOL    HW2 1209   0.328   5.079   2.559
  464SOL     OW 1210   1.593   0.376   2.208
  464SOL    HW1 1211   1.630   0.304   2.266
  464SOL    HW2 1212   1.583   0.460   2.261
  465SOL     OW 1213   1.075   0.734   2.846
  465SOL    HW1 1214   1.045   0.761   2.938
  465SOL    HW2 1215   1.033   0.647   2.822
  466SOL     OW 1216   0.970   1.562   3.553
  466SOL    HW1 1217   0.944   1.607   3.468
  466SOL    HW2 1218   1.011   1.473   3.532
  467SOL     OW 1219   1.851   1.493   3.459
  467SOL    HW1 1220   1.870   1.516   3.363
  467SOL    HW2 1221   1.932   1.514   3.514
  468SOL     OW 1222   0.363   0.890   3.667
  468SOL    HW1 1223   0.441   0.923   3.720
  468SOL    HW2 1224   0.395   0.822   3.601
  469SOL     OW 1225   1.524   0.235   1.991
  469SOL    HW1 1226   1.425   0.247   1.979
  469SOL    HW2 1227   1.554   0.287   2.071
  470SOL     OW 1228   1.326   0.852   1.881
  470SOL    HW1 1229   1.359   0.758   1.897
  470SOL    HW2 1230   1.333   0.874   1.784
  471SOL     OW 1231   1.068   1.371   2.718
  471SOL    HW1 1232   1.080   1.292   2.657
  471SOL    HW2 1233   1.131   1.443   2.692
  472SOL     OW 1234   0.321   0.809   2.822
  472SOL    HW1 1235   0.420   0.811   2.816
  472SOL    HW2 1236   0.290   0.717   2.846
  473SOL     OW 1237   0.326   0.539   2.851
  473SOL    HW1 1238   0.290   0.445   2.854
  473SOL    HW2 1239   0.406   0.542   2.793
  474SOL     OW 1240   1.147   0.371   3.543
  474SOL    HW1 1241   1.097   0.426   3.609
  474SOL    HW2 1242   1.242   0.404   3.536
  475SOL     OW 1243   1.166   0.217   3.322
  475SOL    HW1 1244   1.163   0.286   3.395
  475SOL    HW2 1245   1.213   0.255   3.243
  476SOL     OW 1246   5.066   1.304   2.024
  476SOL    HW1 1247   5.009   1.328   2.102
  476SOL    HW2 1248   0.017   1.212   2.036
  477SOL     OW 1249   0.109   1.778   2.809
  477SOL    HW1 1250   0.055   1.754   2.728
  477SOL    HW2 1251   0.205   1.792   2.782
  478SOL     OW 1252   0.499   1.580   2.778
  478SOL    HW1 1253   0.578   1.638   2.798
  478SOL    HW2 1254   0.527   1.503   2.722
  479SOL     OW 1255   0.957   0.767   3.088
  479SOL    HW1 1256   1.009   0.746   3.171
  479SOL    HW2 1257   0.859   0.760   3.108
  480SOL     OW 1258   0.069   0.620   2.968
  480SOL    HW1 1259   0.121   0.555   2.913
  480SOL    HW2 1260   0.065   0.587   3.063
  481SOL     OW 1261   0.189   0.516   3.585
  481SOL    HW1 1262   0.236   0.467   3.512
  481SOL    HW2 1263   0.158   0.605   3.550
  482SOL     OW 1264   1.376   0.925   3.510
  482SOL    HW1 1265   1.412   1.018   3.519
  482SOL    HW2 1266   1.371   0.900   3.414
  483SOL     OW 1267   0.799   0.575   2.228
  483SOL    HW1 1268   0.815   0.497   2.168
  483SOL    HW2 1269   0.730   0.635   2.187
  484SOL     OW 1270   1.636   0.623   3.063
  484SOL    HW1 1271   1.603   0.563   3.135
  484SOL    HW2 1272   1.721   0.586   3.025
  485SOL     OW 1273   0.249   1.564   3.584
  485SOL    HW1 1274   0.221   1.641   3.641
  485SOL    HW2 1275   0.240   1.479   3.637
  486SOL     OW 1276   0.680   0.483   3.121
  486SOL    HW1 1277   0.620   0.409   3.092
  486SOL    HW2 1278   0.701   0.542   3.042
  487SOL     OW 1279   0.880   1.686   3.330
  487SOL    HW1 1280   0.889   1.642   3.240
  487SOL    HW2 1281   0.892   1.784   3.320
  488SOL     OW 1282   0.457   0.495   2.082
  488SOL    HW1 1283   0.528   0.565   2.092
  488SOL    HW2 1284   0.369   0.539   2.062
  489SOL     OW 1285   0.163   1.130   3.351
  489SOL    HW1 1286   0.162   1.072   3.432
  489SOL    HW2 1287   0.172   1.074   3.269
  490SOL     OW 1288   1.303   1.035   3.076
  490SOL    HW1 1289   1.330   0.971   3.004
  490SOL    HW2 1290   1.233   1.097   3.040
  491SOL     OW 1291   1.328   0.838   2.164
  491SOL    HW1 1292   1.250   0.802   2.214
  491SOL    HW2 1293   1.303   0.853   2.069
  492SOL     OW 1294   1.765   1.748   3.004
  492SOL    HW1 1295   1.823   1.792   2.936
  492SOL    HW2 1296   1.753   1.651   2.980
  493SOL     OW 1297   1.254   1.724   2.963
  493SOL    HW1 1298   1.340   1.748   2.919
  493SOL    HW2 1299   1.255   1.628   2.990
  494SOL     OW 1300   0.080   1.213   2.890
  494SOL    HW1 1301   0.098   1.241   2.984
  494SOL    HW2 1302   5.071   1.229   2.867
  495SOL     OW 1303   0.672   1.661   3.611
  495SOL    HW1 1304   0.607   1.735   3.594
  495SOL    HW2 1305   0.754   1.675   3.556
  496SOL     OW 1306   1.703   0.136   2.320
  496SOL    HW1 1307   1.792   0.150   2.275
  496SOL    HW2 1308   1.716   0.082   2.403
  497SOL     OW 1309   1.364   1.573   2.340
  497SOL    HW1 1310   1.427   1.594   2.265
  497SOL    HW2 1311   1.321   1.658   2.371
  498SOL     OW 1312   0.139   1.776   3.723
  498SOL    HW1 1313   0.092   1.698   3.765
  498SOL    HW2 1314   0.201   1.817   3.790
  499SOL     OW 1315   1.268   0.919   2.522
  499SOL    HW1 1316   1.342   0.855   2.542
  499SOL    HW2 1317   1.305   1.000   2.477
  500SOL     OW 1318   0.793   1.281   3.310
  500SOL    HW1 1319   0.762   1.338   3.386
  500SOL    HW2 1320   0.726   1.284   3.236
  501SOL     OW 1321   0.665   1.599   2.031
  501SOL    HW1 1322   0.675   1.626   1.936
  501SOL    HW2 1323   0.609   1.516   2.037
  502SOL     OW 1324   1.642   1.727   3.251
  502SOL    HW1 1325   1.680   1.741   3.159
  502SOL    HW2 1326   1.618   1.816   3.291
  503SOL     OW 1327   1.853   0.155   2.839
  503SOL    HW1 1328   1.864   0.082   2.772
  503SOL    HW2 1329   1.771   0.209   2.817
  504SOL     OW 1330   0.246   0.280   2.577
  504SOL    HW1 1331   0.172   0.333   2.536
  504SOL    HW2 1332   0.249   0.297   2.675
  505SOL     OW 1333   1.170   1.630   1.886
  505SOL    HW1 1334   1.186   1.533   1.904
  505SOL    HW2 1335   1.109   1.639   1.807
  506SOL     OW 1336   0.827   1.024   3.253
  506SOL    HW1 1337   0.833   1.031   3.153
  506SOL    HW2 1338   0.824   1.116   3.292
  507SOL     OW 1339   0.938   0.907   2.137
  507SOL    HW1 1340   1.010   0.942   2.077
  507SOL    HW2 1341   0.966   0.821   2.179
  508SOL     OW 1342   1.552   1.643   1.893
  508SOL    HW1 1343   1.452   1.640   1.888
  508SOL    HW2 1344   1.590   1.637   1.801
  509SOL     OW 1345   0.388   1.270   3.331
  509SOL    HW1 1346   0.370   1.358   3.286
  509SOL    HW2 1347   0.304   1.216   3.334
  510SOL     OW 1348   1.614   1.308   3.125
  510SOL    HW1 1349   1.699   1.291   3.177
  510SOL    HW2 1350   1.558   1.375   3.174
  511SOL     OW 1351   1.059   1.133   2.585
  511SOL    HW1 1352   0.986   1.076   2.623
  511SOL    HW2 1353   1.120   1.076   2.530
  512SOL     OW 1354   1.035   0.222   2.840
  512SOL    HW1 1355   1.042   0.187   2.747
  512SOL    HW2 1356   1.009   0.148   2.902
  513SOL     OW 1357   0.604   1.471   2.363
  513SOL    HW1 1358   0.656   1.424   2.292
  513SOL    HW2 1359   0.535   1.530   2.320
  514SOL     OW 1360   1.706   0.364   3.233
  514SOL    HW1 1361   1.766   0.444   3.233
  514SOL    HW2 1362   1.745   0.294   3.173
  515SOL     OW 1363   0.230   1.371   2.137
  515SOL    HW1 1364   0.137   1.340   2.119
  515SOL    HW2 1365   0.242   1.385   2.235
  516SOL     OW 1366   0.147   1.032   3.604
  516SOL    HW1 1367   0.066   0.998   3.651
  516SOL    HW2 1368   0.228   0.985   3.639
  517SOL     OW 1369   0.663   0.239   3.329
  517SOL    HW1 1370   0.747   0.205   3.287
  517SOL    HW2 1371   0.672   0.237   3.428
  518SOL     OW 1372   0.063   0.368   1.903
  518SOL    HW1 1373   5.057   0.332   1.893
  518SOL    HW2 1374   0.089   0.417   1.819
  519SOL     OW 1375   1.440   0.863   3.247
  519SOL    HW1 1376   1.388   0.923   3.186
  519SOL    HW2 1377   1.537   0.881   3.235
  520SOL     OW 1378   0.043   0.171   2.162
  520SOL    HW1 1379   0.055   0.249   2.101
  520SOL    HW2 1380   0.121   0.109   2.154
  521SOL     OW 1381   1.215   1.361   1.978
  521SOL    HW1 1382   1.122   1.326   1.965
  521SOL    HW2 1383   1.239   1.359   2.075
  522SOL     OW 1384   0.624   0.836   3.289
  522SOL    HW1 1385   0.673   0.922   3.304
  522SOL    HW2 1386   0.690   0.760   3.293
  523SOL     OW 1387   1.505   1.761   2.836
  523SOL    HW1 1388   1.540   1.811   2.757
  523SOL    HW2 1389   1.582   1.740   2.897
  524SOL     OW 1390   0.739   0.550   3.559
  524SOL    HW1 1391   0.784   0.618   3.616
  524SOL    HW2 1392   0.746   0.460   3.601
  525SOL     OW 1393   1.478   1.179   3.493
  525SOL    HW1 1394   1.465   1.184   3.592
  525SOL    HW2 1395   1.574   1.196   3.470
  526SOL     OW 1396   0.366   1.727   3.413
  526SOL    HW1 1397   0.285   1.785   3.401
  526SOL    HW2 1398   0.341   1.645   3.465
  527SOL     OW 1399   1.695   0.896   3.097
  527SOL    HW1 1400   1.669   0.801   3.077
  527SOL    HW2 1401   1.651   0.957   3.031
  528SOL     OW 1402   1.217   0.304   2.325
  528SOL    HW1 1403   1.285   0.231   2.317
  528SOL    HW2 1404   1.241   0.362   2.403
  529SOL     OW 1405   0.617   0.729   2.505
  529SOL    HW1 1406   0.649   0.824   2.508
  529SOL    HW2 1407   0.542   0.721   2.439
  530SOL     OW 1408   1.753   0.376   3.499
  530SOL    HW1 1409   1.730   0.377   3.402
  530SOL    HW2 1410   1.683   0.325   3.550
  531SOL     OW 1411   1.730   0.940   3.361
  531SOL    HW1 1412   1.731   1.040   3.372
  531SOL    HW2 1413   1.748   0.917   3.266
  532SOL     OW 1414   0.856   1.372   1.914
  532SOL    HW1 1415   0.819   1.388   2.005
  532SOL    HW2 1416   0.876   1.460   1.870
  533SOL     OW 1417   0.656   1.821   2.778
  533SOL    HW1 1418   0.642   1.919   2.764
  533SOL    HW2 1419   0.753   1.799   2.766
  534SOL     OW 1420   0.890   0.961   2.713
  534SOL    HW1 1421   0.940   0.877   2.731
  534SOL    HW2 1422   0.868   1.006   2.800
  535SOL     OW 1423   1.113   0.998   1.949
  535SOL    HW1 1424   1.066   1.041   1.872
  535SOL    HW2 1425   1.183   0.936   1.915
  536SOL     OW 1426   1.872   1.561   2.704
  536SOL    HW1 1427   1.775   1.574   2.684
  536SOL    HW2 1428   1.882   1.486   2.769
  537SOL     OW 1429   0.238   1.331   3.711
  537SOL    HW1 1430   0.187   1.269   3.651
  537SOL    HW2 1431   0.205   1.322   3.805
  538SOL     OW 1432   0.063   1.209   2.517
  538SOL    HW1 1433   0.032   1.175   2.606
  538SOL    HW2 1434   0.161   1.190   2.506
  539SOL     OW 1435   0.675   1.412   3.501
  539SOL    HW1 1436   0.598   1.352   3.522
  539SOL    HW2 1437   0.658   1.503   3.539
  540SOL     OW 1438   1.794   0.159   3.095
  540SOL    HW1 1439   1.805   0.065   3.127
  540SOL    HW2 1440   1.812   0.163   2.997
  541SOL     OW 1441   0.424   0.413   2.397
  541SOL    HW1 1442   0.487   0.361   2.340
  541SOL    HW2 1443   0.388   0.355   2.470
  542SOL     OW 1444   1.707   1.498   2.939
  542SOL    HW1 1445   1.622   1.477   2.891
  542SOL    HW2 1446   1.715   1.440   3.020
  543SOL     OW 1447   0.320   0.555   3.128
  543SOL    HW1 1448   0.386   0.500   3.179
  543SOL    HW2 1449   0.335   0.541   3.030
  544SOL     OW 1450   0.826   1.614   2.536
  544SOL    HW1 1451   0.815   1.686   2.467
  544SOL    HW2 1452   0.745   1.555   2.536
  545SOL     OW 1453   1.384   0.208   3.023
  545SOL    HW1 1454   1.476   0.194   3.061
  545SOL    HW2 1455   1.340   0.284   3.071
  546SOL     OW 1456   1.006   0.006   3.024
  546SOL    HW1 1457   0.968   5.017   2.970
  546SOL    HW2 1458   1.090   5.062   3.069
  547SOL     OW 1459   0.773   1.338   2.193
  547SOL    HW1 1460   0.753   1.241   2.177
  547SOL    HW2 1461   0.850   1.346   2.257
  548SOL     OW 1462   0.612   1.566   3.153
  548SOL    HW1 1463   0.601   1.656   3.195
  548SOL    HW2 1464   0.707   1.554   3.124
  549SOL     OW 1465   1.283   0.020   2.071
  549SOL    HW1 1466   1.333   5.054   2.001
  549SOL    HW2 1467   1.196   5.062   2.090
  550SOL     OW 1468   1.257   0.454   2.552
  550SOL    HW1 1469   1.216   0.541   2.524
  550SOL    HW2 1470   1.264   0.451   2.652
  551SOL     OW 1471   1.617   0.280   2.803
  551SOL    HW1 1472   1.556   0.201   2.796
  551SOL    HW2 1473   1.616   0.331   2.717
  552SOL     OW 1474   0.086   1.068   2.121
  552SOL    HW1 1475   0.175   1.021   2.117
  552SOL    HW2 1476   0.020   1.010   2.169
  553SOL     OW 1477   0.887   1.655   2.196
  553SOL    HW1 1478   0.808   1.628   2.142
  553SOL    HW2 1479   0.865   1.735   2.250
  554SOL     OW 1480   0.216   0.607   3.869
  554SOL    HW1 1481   0.145   0.550   3.910
  554SOL    HW2 1482   0.222   0.588   3.771
  555SOL     OW 1483   0.224   0.279   4.736
  555SOL    HW1 1484   0.242   0.242   4.828
  555SOL    HW2 1485   0.128   0.265   4.713
  556SOL     OW 1486   0.016   0.410   4.385
  556SOL    HW1 1487   5.065   0.448   4.469
  556SOL    HW2 1488   5.074   0.314   4.376
  557SOL     OW 1489   0.553   1.214   4.864
  557SOL    HW1 1490   0.453   1.217   4.865
  557SOL    HW2 1491   0.589   1.292   4.915
  558SOL     OW 1492   1.551   1.528   4.450
  558SOL    HW1 1493   1.518   1.498   4.540
  558SOL    HW2 1494   1.478   1.517   4.382
  559SOL     OW 1495   1.092   0.723   4.426
  559SOL    HW1 1496   1.146   0.803   4.402
  559SOL    HW2 1497   1.066   0.727   4.522
  560SOL     OW 1498   1.778   0.610   3.943
  560SOL    HW1 1499   1.753   0.599   3.847
  560SOL    HW2 1500   1.730   0.541   3.998
  561SOL     OW 1501   0.767   1.120   4.729
  561SOL    HW1 1502   0.686   1.140   4.783
  561SOL    HW2 1503   0.811   1.205   4.701
  562SOL     OW 1504   0.701   1.000   4.362
  562SOL    HW1 1505   0.772   0.988   4.431
  562SOL    HW2 1506   0.620   1.042   4.404
  563SOL     OW 1507   0.292   1.481   4.809
  563SOL    HW1 1508   0.241   1.410   4.760
  563SOL    HW2 1509   0.361   1.520   4.748
  564SOL     OW 1510   1.617   0.462   4.444
  564SOL    HW1 1511   1.563   0.504   4.370
  564SOL    HW2 1512   1.602   0.512   4.529
  565SOL     OW 1513   0.261   1.682   4.224
  565SOL    HW1 1514   0.253   1.768   4.274
  565SOL    HW2 1515   0.320   1.696   4.144
  566SOL     OW 1516   0.225   1.420   4.261
  566SOL    HW1 1517   0.242   1.519   4.258
  566SOL    HW2 1518   0.127   1.404   4.273
  567SOL     OW 1519   0.257   1.086   4.647
  567SOL    HW1 1520   0.254   0.993   4.684
  567SOL    HW2 1521   0.197   1.146   4.700
  568SOL     OW 1522   0.643   1.833   0.034
  568SOL    HW1 1523   0.546   1.846   0.052
  568SOL    HW2 1524   0.696   1.894   0.094
  569SOL     OW 1525   0.572   0.988   3.845
  569SOL    HW1 1526   0.611   1.044   3.772
  569SOL    HW2 1527   0.614   1.013   3.932
  570SOL     OW 1528   0.133   0.649   4.293
  570SOL    HW1 1529   0.085   0.563   4.313
  570SOL    HW2 1530   0.105   0.718   4.360
  571SOL     OW 1531   1.865   1.742   4.069
  571SOL    HW1 1532   1.915   1.727   4.154
  571SOL    HW2 1533   1.872   1.838   4.043
  572SOL     OW 1534   0.029   1.584   3.881
  572SOL    HW1 1535   0.013   1.486   3.888
  572SOL    HW2 1536   5.037   1.633   3.919
  573SOL     OW 1537   1.688   0.921   4.374
  573SOL    HW1 1538   1.778   0.878   4.384
  573SOL    HW2 1539   1.681   0.963   4.283
  574SOL     OW 1540   1.649   1.143   4.150
  574SOL    HW1 1541   1.743   1.125   4.119
  574SOL    HW2 1542   1.652   1.202   4.231
  575SOL     OW 1543   0.622   1.417   4.471
  575SOL    HW1 1544   0.587   1.332   4.511
  575SOL    HW2 1545   0.602   1.418   4.373
  576SOL     OW 1546   0.823   0.012   4.239
  576SOL    HW1 1547   0.846   0.109   4.229
  576SOL    HW2 1548   0.723   0.001   4.240
  577SOL     OW 1549   0.214   0.986   4.939
  577SOL    HW1 1550   0.307   0.951   4.949
  577SOL    HW2 1551   0.152   0.910   4.918
  578SOL     OW 1552   1.550   0.976   3.917
  578SOL    HW1 1553   1.473   0.918   3.946
  578SOL    HW2 1554   1.585   1.026   3.996
  579SOL     OW 1555   1.454   1.418   4.681
  579SOL    HW1 1556   1.390   1.442   4.754
  579SOL    HW2 1557   1.436   1.325   4.650
  580SOL     OW 1558   1.653   1.732   4.303
  580SOL    HW1 1559   1.625   1.690   4.216
  580SOL    HW2 1560   1.633   1.668   4.378
  581SOL     OW 1561   0.585   0.731   3.989
  581SOL    HW1 1562   0.594   0.814   3.934
  581SOL    HW2 1563   0.522   0.748   4.064
  582SOL     OW 1564   1.296   0.384   4.670
  582SOL    HW1 1565   1.199   0.366   4.687
  582SOL    HW2 1566   1.351   0.339   4.739
  583SOL     OW 1567   1.584   1.650   4.016
  583SOL    HW1 1568   1.682   1.666   4.032
  583SOL    HW2 1569   1.566   1.651   3.918
  584SOL     OW 1570   1.024   0.405   4.901
  584SOL    HW1 1571   0.947   0.443   4.952
  584SOL    HW2 1572   0.991   0.334   4.839
  585SOL     OW 1573   1.021   0.703   4.139
  585SOL    HW1 1574   1.036   0.709   4.238
  585SOL    HW2 1575   0.938   0.651   4.121
  586SOL     OW 1576   0.102   0.849   4.494
  586SOL    HW1 1577   0.186   0.807   4.529
  586SOL    HW2 1578   0.065   0.911   4.563
  587SOL     OW 1579   0.059   1.799   0.229
  587SOL    HW1 1580   5.065   1.774   0.282
  587SOL    HW2 1581   0.032   1.860   0.154
  588SOL     OW 1582   0.883   0.359   3.931
  588SOL    HW1 1583   0.906   0.415   3.851
  588SOL    HW2 1584   0.896   0.263   3.909
  589SOL     OW 1585   1.362   1.167   4.282
  589SOL    HW1 1586   1.444   1.151   4.226
  589SOL    HW2 1587   1.300   1.227   4.232
  590SOL     OW 1588   0.559   0.248   4.628
  590SOL    HW1 1589   0.545   0.250   4.727
  590SOL    HW2 1590   0.534   0.336   4.588
  591SOL     OW 1591   0.965   1.449   4.204
  591SOL    HW1 1592   0.930   1.513   4.135
  591SOL    HW2 1593   1.001   1.501   4.282
  592SOL     OW 1594   0.359   1.810   4.592
  592SOL    HW1 1595   0.399   1.720   4.612
  592SOL    HW2 1596   0.424   1.881   4.618
  593SOL     OW 1597   1.788   1.070   4.582
  593SOL    HW1 1598   1.739   1.040   4.499
  593SOL    HW2 1599   1.729   1.058   4.661
  594SOL     OW 1600   0.320   0.926   3.973
  594SOL    HW1 1601   0.400   0.943   3.916
  594SOL    HW2 1602   0.286   0.834   3.957
  595SOL     OW 1603   1.481   0.753   4.419
  595SOL    HW1 1604   1.485   0.707   4.507
  595SOL    HW2 1605   1.560   0.814   4.409
  596SOL     OW 1606   1.111   1.746   3.959
  596SOL    HW1 1607   1.028   1.710   4.001
  596SOL    HW2 1608   1.131   1.694   3.876
  597SOL     OW 1609   1.624   1.366   3.813
  597SOL    HW1 1610   1.584   1.456   3.795
  597SOL    HW2 1611   1.561   1.295   3.782
  598SOL     OW 1612   0.480   1.722   4.047
  598SOL    HW1 1613   0.522   1.780   4.116
  598SOL    HW2 1614   0.551   1.683   3.988
  599SOL     OW 1615   1.419   0.097   4.153
  599SOL    HW1 1616   1.380   0.074   4.064
  599SOL    HW2 1617   1.518   0.111   4.143
  600SOL     OW 1618   0.262   1.785   4.943
  600SOL    HW1 1619   0.318   1.719   4.993
  600SOL    HW2 1620   0.226   1.742   4.860
  601SOL     OW 1621   0.941   1.692   4.643
  601SOL    HW1 1622   1.004   1.621   4.674
  601SOL    HW2 1623   0.894   1.660   4.560
  602SOL     OW 1624   0.405   0.694   4.214
  602SOL    HW1 1625   0.426   0.596   4.217
  602SOL    HW2 1626   0.308   0.708   4.236
  603SOL     OW 1627   0.620   0.128   3.792
  603SOL    HW1 1628   0.668   0.065   3.853
  603SOL    HW2 1629   0.572   0.076   3.721
  604SOL     OW 1630   0.836   1.371   4.651
  604SOL    HW1 1631   0.929   1.376   4.614
  604SOL    HW2 1632   0.771   1.403   4.582
  605SOL     OW 1633   0.915   0.520   4.616
  605SOL    HW1 1634   0.879   0.519   4.523
  605SOL    HW2 1635   0.941   0.427   4.643
  606SOL     OW 1636   0.560   0.041   4.189
  606SOL    HW1 1637   0.490   0.042   4.260
  606SOL    HW2 1638   0.544   0.114   4.123
  607SOL     OW 1639   1.447   1.174   3.754
  607SOL    HW1 1640   1.478   1.096   3.808
  607SOL    HW2 1641   1.355   1.201   3.783
  608SOL     OW 1642   0.287   0.047   3.935
  608SOL    HW1 1643   0.326   0.110   3.868
  608SOL    HW2 1644   0.344   5.053   3.943
  609SOL     OW 1645   0.943   0.261   4.222
  609SOL    HW1 1646   0.934   0.316   4.140
  609SOL    HW2 1647   1.040   0.248   4.243
  610SOL     OW 1648   1.229   1.570   4.498
  610SOL    HW1 1649   1.229   1.643   4.430
  610SOL    HW2 1650   1.313   1.573   4.551
  611SOL     OW 1651   0.456   1.097   4.456
  611SOL    HW1 1652   0.387   1.076   4.525
  611SOL    HW2 1653   0.416   1.084   4.365
  612SOL     OW 1654   1.253   1.804   4.321
  612SOL    HW1 1655   1.308   1.866   4.266
  612SOL    HW2 1656   1.194   1.856   4.383
  613SOL     OW 1657   1.062   0.542   3.733
  613SOL    HW1 1658   1.009   0.624   3.713
  613SOL    HW2 1659   1.136   0.565   3.796
  614SOL     OW 1660   0.544   0.236   4.903
  614SOL    HW1 1661   0.576   0.143   4.885
  614SOL    HW2 1662   0.448   0.234   4.929
  615SOL     OW 1663   0.831   0.479   4.351
  615SOL    HW1 1664   0.795   0.533   4.275
  615SOL    HW2 1665   0.862   0.391   4.317
  616SOL     OW 1666   0.948   0.036   4.480
  616SOL    HW1 1667   0.898   0.048   4.394
  616SOL    HW2 1668   1.002   5.039   4.477
  617SOL     OW 1669   1.419   1.163   4.600
  617SOL    HW1 1670   1.376   1.076   4.622
  617SOL    HW2 1671   1.423   1.174   4.500
  618SOL     OW 1672   1.522   0.596   4.673
  618SOL    HW1 1673   1.451   0.525   4.678
  618SOL    HW2 1674   1.573   0.596   4.759
  619SOL     OW 1675   1.816   0.821   4.102
  619SOL    HW1 1676   1.873   0.784   4.176
  619SOL    HW2 1677   1.807   0.754   4.029
  620SOL     OW 1678   0.482   1.400   3.884
  620SOL    HW1 1679   0.397   1.397   3.936
  620SOL    HW2 1680   0.463   1.376   3.788
  621SOL     OW 1681   1.673   1.288   4.381
  621SOL    HW1 1682   1.773   1.289   4.382
  621SOL    HW2 1683   1.639   1.380   4.400
  622SOL     OW 1684   1.417   0.587   3.790
  622SOL    HW1 1685   1.363   0.566   3.871
  622SOL    HW2 1686   1.509   0.549   3.799
  623SOL     OW 1687   0.524   0.242   4.015
  623SOL    HW1 1688   0.562   0.199   3.934
  623SOL    HW2 1689   0.494   0.335   3.993
  624SOL     OW 1690   1.123   1.240   4.832
  624SOL    HW1 1691   1.037   1.256   4.880
  624SOL    HW2 1692   1.115   1.271   4.738
  625SOL     OW 1693   1.615   1.104   4.797
  625SOL    HW1 1694   1.595   1.131   4.892
  625SOL    HW2 1695   1.557   1.155   4.735
  626SOL     OW 1696   0.719   1.057   4.070
  626SOL    HW1 1697   0.710   1.038   4.167
  626SOL    HW2 1698   0.798   1.007   4.033
  627SOL     OW 1699   0.433   0.831   4.994
  627SOL    HW1 1700   0.478   0.862   5.077
  627SOL    HW2 1701   0.399   0.737   5.007
  628SOL     OW 1702   1.272   0.406   4.985
  628SOL    HW1 1703   1.293   0.486   5.041
  628SOL    HW2 1704   1.179   0.415   4.949
  629SOL     OW 1705   0.340   1.109   4.209
  629SOL    HW1 1706   0.348   1.192   4.154
  629SOL    HW2 1707   0.330   1.030   4.147
  630SOL     OW 1708   0.542   0.539   4.586
  630SOL    HW1 1709   0.568   0.587   4.502
  630SOL    HW2 1710   0.608   0.561   4.659
  631SOL     OW 1711   1.203   1.335   4.113
  631SOL    HW1 1712   1.255   1.414   4.145
  631SOL    HW2 1713   1.106   1.347   4.136
  632SOL     OW 1714   1.283   1.452   4.890
  632SOL    HW1 1715   1.331   1.456   4.978
  632SOL    HW2 1716   1.227   1.370   4.886
  633SOL     OW 1717   1.589   0.628   4.190
  633SOL    HW1 1718   1.533   0.675   4.258
  633SOL    HW2 1719   1.629   0.694   4.127
  634SOL     OW 1720   0.397   1.572   5.032
  634SOL    HW1 1721   0.358   1.534   4.948
  634SOL    HW2 1722   0.464   1.507   5.069
  635SOL     OW 1723   0.558   0.871   4.735
  635SOL    HW1 1724   0.579   0.964   4.708
  635SOL    HW2 1725   0.532   0.869   4.832
  636SOL     OW 1726   1.382   0.839   4.730
  636SOL    HW1 1727   1.284   0.822   4.723
  636SOL    HW2 1728   1.432   0.753   4.721
  637SOL     OW 1729   1.228   0.509   3.985
  637SOL    HW1 1730   1.246   0.429   4.043
  637SOL    HW2 1731   1.161   0.567   4.029
  638SOL     OW 1732   0.293   0.177   4.991
  638SOL    HW1 1733   0.224   0.228   5.041
  638SOL    HW2 1734   0.273   0.079   4.995
  639SOL     OW 1735   0.001   1.324   4.990
  639SOL    HW1 1736   5.049   1.238   5.025
  639SOL    HW2 1737   5.085   1.393   5.062
  640SOL     OW 1738   0.722   0.651   4.771
  640SOL    HW1 1739   0.801   0.623   4.715
  640SOL    HW2 1740   0.683   0.735   4.733
  641SOL     OW 1741   0.336   0.055   4.337
  641SOL    HW1 1742   0.306   0.146   4.366
  641SOL    HW2 1743   0.281   5.072   4.383
  642SOL     OW 1744   1.580   0.382   4.079
  642SOL    HW1 1745   1.620   0.308   4.132
  642SOL    HW2 1746   1.577   0.465   4.134
  643SOL     OW 1747   1.043   0.747   4.702
  643SOL    HW1 1748   1.023   0.769   4.798
  643SOL    HW2 1749   1.011   0.655   4.682
  644SOL     OW 1750   1.518   0.236   3.858
  644SOL    HW1 1751   1.421   0.256   3.843
  644SOL    HW2 1752   1.551   0.286   3.938
  645SOL     OW 1753   1.291   0.821   3.740
  645SOL    HW1 1754   1.349   0.740   3.755
  645SOL    HW2 1755   1.310   0.858   3.649
  646SOL     OW 1756   1.091   1.356   4.583
  646SOL    HW1 1757   1.091   1.282   4.515
  646SOL    HW2 1758   1.140   1.435   4.546
  647SOL     OW 1759   0.308   0.794   4.668
  647SOL    HW1 1760   0.405   0.820   4.675
  647SOL    HW2 1761   0.297   0.699   4.699
  648SOL     OW 1762   0.302   0.529   4.727
  648SOL    HW1 1763   0.274   0.434   4.736
  648SOL    HW2 1764   0.381   0.535   4.665
  649SOL     OW 1765   1.138   0.224   0.086
  649SOL    HW1 1766   1.140   0.277   0.171
  649SOL    HW2 1767   1.165   0.283   0.009
  650SOL     OW 1768   0.001   1.298   3.903
  650SOL    HW1 1769   5.028   1.326   3.978
  650SOL    HW2 1770   0.028   1.203   3.914
  651SOL     OW 1771   0.102   1.795   4.672
  651SOL    HW1 1772   0.039   1.805   4.596
  651SOL    HW2 1773   0.196   1.797   4.637
  652SOL     OW 1774   0.489   1.581   4.653
  652SOL    HW1 1775   0.562   1.647   4.672
  652SOL    HW2 1776   0.521   1.514   4.586
  653SOL     OW 1777   0.970   0.772   4.997
  653SOL    HW1 1778   1.015   0.849   5.042
  653SOL    HW2 1779   0.875   0.767   5.027
  654SOL     OW 1780   0.075   0.593   4.867
  654SOL    HW1 1781   0.150   0.565   4.807
  654SOL    HW2 1782   0.103   0.585   4.962
  655SOL     OW 1783   0.798   0.579   4.077
  655SOL    HW1 1784   0.811   0.499   4.019
  655SOL    HW2 1785   0.722   0.633   4.042
  656SOL     OW 1786   1.650   0.602   4.912
  656SOL    HW1 1787   1.637   0.535   4.986
  656SOL    HW2 1788   1.740   0.590   4.871
  657SOL     OW 1789   0.700   0.464   4.971
  657SOL    HW1 1790   0.641   0.389   4.942
  657SOL    HW2 1791   0.690   0.542   4.909
  658SOL     OW 1792   0.905   1.651   0.008
  658SOL    HW1 1793   0.847   1.710   5.039
  658SOL    HW2 1794   0.953   1.708   0.075
  659SOL     OW 1795   0.459   0.496   3.940
  659SOL    HW1 1796   0.526   0.570   3.952
  659SOL    HW2 1797   0.368   0.536   3.926
  660SOL     OW 1798   1.260   0.995   4.912
  660SOL    HW1 1799   1.329   0.954   4.852
  660SOL    HW2 1800   1.251   1.092   4.890
  661SOL     OW 1801   1.309   0.838   4.018
  661SOL    HW1 1802   1.223   0.817   4.064
  661SOL    HW2 1803   1.293   0.847   3.920
  662SOL     OW 1804   1.749   1.733   4.850
  662SOL    HW1 1805   1.828   1.758   4.794
  662SOL    HW2 1806   1.729   1.636   4.838
  663SOL     OW 1807   1.279   1.716   4.881
  663SOL    HW1 1808   1.347   1.755   4.819
  663SOL    HW2 1809   1.286   1.617   4.880
  664SOL     OW 1810   0.060   1.228   4.750
  664SOL    HW1 1811   0.052   1.256   4.846
  664SOL    HW2 1812   5.058   1.236   4.706
  665SOL     OW 1813   1.692   0.142   4.169
  665SOL    HW1 1814   1.784   0.147   4.128
  665SOL    HW2 1815   1.699   0.102   4.261
  666SOL     OW 1816   1.368   1.580   4.201
  666SOL    HW1 1817   1.416   1.601   4.115
  666SOL    HW2 1818   1.321   1.662   4.233
  667SOL     OW 1819   1.265   0.929   4.391
  667SOL    HW1 1820   1.341   0.868   4.413
  667SOL    HW2 1821   1.300   1.011   4.345
  668SOL     OW 1822   0.661   1.604   3.887
  668SOL    HW1 1823   0.676   1.626   3.791
  668SOL    HW2 1824   0.604   1.522   3.894
  669SOL     OW 1825   1.637   1.766   0.018
  669SOL    HW1 1826   1.696   1.752   5.025
  669SOL    HW2 1827   1.663   1.852   0.064
  670SOL     OW 1828   1.856   0.165   4.716
  670SOL    HW1 1829   1.868   0.072   4.680
  670SOL    HW2 1830   1.775   0.206   4.675
  671SOL     OW 1831   0.258   0.293   4.435
  671SOL    HW1 1832   0.178   0.346   4.406
  671SOL    HW2 1833   0.267   0.298   4.535
  672SOL     OW 1834   1.183   1.614   3.738
  672SOL    HW1 1835   1.191   1.518   3.765
  672SOL    HW2 1836   1.117   1.623   3.664
  673SOL     OW 1837   0.788   1.040   0.007
  673SOL    HW1 1838   0.844   1.033   5.011
  673SOL    HW2 1839   0.847   1.058   0.086
  674SOL     OW 1840   0.925   0.921   3.985
  674SOL    HW1 1841   1.004   0.951   3.932
  674SOL    HW2 1842   0.952   0.845   4.044
  675SOL     OW 1843   1.536   1.636   3.751
  675SOL    HW1 1844   1.437   1.627   3.742
  675SOL    HW2 1845   1.577   1.640   3.660
  676SOL     OW 1846   1.054   1.140   4.419
  676SOL    HW1 1847   0.984   1.083   4.462
  676SOL    HW2 1848   1.116   1.083   4.366
  677SOL     OW 1849   1.004   0.230   4.685
  677SOL    HW1 1850   1.011   0.188   4.594
  677SOL    HW2 1851   1.006   0.158   4.754
  678SOL     OW 1852   0.593   1.458   4.195
  678SOL    HW1 1853   0.648   1.414   4.124
  678SOL    HW2 1854   0.526   1.519   4.153
  679SOL     OW 1855   1.718   0.416   0.012
  679SOL    HW1 1856   1.774   0.415   0.095
  679SOL    HW2 1857   1.749   0.343   5.037
  680SOL     OW 1858   0.240   1.377   4.003
  680SOL    HW1 1859   0.148   1.345   3.981
  680SOL    HW2 1860   0.246   1.394   4.101
  681SOL     OW 1861   0.075   0.357   3.773
  681SOL    HW1 1862   5.071   0.317   3.765
  681SOL    HW2 1863   0.093   0.415   3.693
  682SOL     OW 1864   0.041   0.171   4.023
  682SOL    HW1 1865   0.061   0.248   3.962
  682SOL    HW2 1866   0.117   0.106   4.019
  683SOL     OW 1867   1.194   1.353   3.832
  683SOL    HW1 1868   1.101   1.319   3.819
  683SOL    HW2 1869   1.219   1.346   3.928
  684SOL     OW 1870   1.518   1.788   4.714
  684SOL    HW1 1871   1.547   1.830   4.627
  684SOL    HW2 1872   1.599   1.771   4.771
  685SOL     OW 1873   1.460   1.275   0.300
  685SOL    HW1 1874   1.370   1.238   0.323
  685SOL    HW2 1875   1.522   1.200   0.278
  686SOL     OW 1876   1.671   0.896   4.974
  686SOL    HW1 1877   1.655   0.800   4.952
  686SOL    HW2 1878   1.651   0.952   4.894
  687SOL     OW 1879   1.226   0.311   4.182
  687SOL    HW1 1880   1.286   0.231   4.182
  687SOL    HW2 1881   1.251   0.371   4.258
  688SOL     OW 1882   0.619   0.735   4.381
  688SOL    HW1 1883   0.667   0.822   4.370
  688SOL    HW2 1884   0.540   0.733   4.321
  689SOL     OW 1885   1.771   0.911   0.136
  689SOL    HW1 1886   1.805   1.004   0.150
  689SOL    HW2 1887   1.735   0.901   0.044
  690SOL     OW 1888   0.863   1.366   3.770
  690SOL    HW1 1889   0.826   1.382   3.861
  690SOL    HW2 1890   0.875   1.454   3.723
  691SOL     OW 1891   0.649   1.803   4.673
  691SOL    HW1 1892   0.637   1.902   4.659
  691SOL    HW2 1893   0.739   1.775   4.641
  692SOL     OW 1894   0.892   0.964   4.553
  692SOL    HW1 1895   0.937   0.885   4.595
  692SOL    HW2 1896   0.848   1.020   4.624
  693SOL     OW 1897   1.114   1.000   3.814
  693SOL    HW1 1898   1.069   1.048   3.738
  693SOL    HW2 1899   1.175   0.929   3.777
  694SOL     OW 1900   1.851   1.546   4.529
  694SOL    HW1 1901   1.754   1.547   4.507
  694SOL    HW2 1902   1.869   1.478   4.601
  695SOL     OW 1903   0.063   1.213   4.373
  695SOL    HW1 1904   0.069   1.226   4.472
  695SOL    HW2 1905   0.153   1.186   4.337
  696SOL     OW 1906   1.823   0.206   4.980
  696SOL    HW1 1907   1.777   0.126   5.017
  696SOL    HW2 1908   1.834   0.196   4.881
  697SOL     OW 1909   0.425   0.417   4.249
  697SOL    HW1 1910   0.492   0.365   4.196
  697SOL    HW2 1911   0.385   0.358   4.320
  698SOL     OW 1912   1.697   1.478   4.817
  698SOL    HW1 1913   1.610   1.444   4.779
  698SOL    HW2 1914   1.716   1.431   4.903
  699SOL     OW 1915   0.809   1.603   4.425
  699SOL    HW1 1916   0.812   1.624   4.327
  699SOL    HW2 1917   0.738   1.535   4.443
  700SOL     OW 1918   1.420   0.198   4.888
  700SOL    HW1 1919   1.496   0.172   4.948
  700SOL    HW2 1920   1.366   0.269   4.933
  701SOL     OW 1921   1.019   0.028   4.882
  701SOL    HW1 1922   0.921   0.006   4.882
  701SOL    HW2 1923   1.068   5.050   4.940
  702SOL     OW 1924   0.777   1.328   4.037
  702SOL    HW1 1925   0.750   1.232   4.035
  702SOL    HW2 1926   0.846   1.342   4.108
  703SOL     OW 1927   1.268   0.016   3.912
  703SOL    HW1 1928   1.331   5.050   3.855
  703SOL    HW2 1929   1.188   5.047   3.934
  704SOL     OW 1930   1.264   0.476   4.405
  704SOL    HW1 1931   1.202   0.554   4.397
  704SOL    HW2 1932   1.288   0.463   4.502
  705SOL     OW 1933   1.624   0.274   4.641
  705SOL    HW1 1934   1.558   0.199   4.644
  705SOL    HW2 1935   1.620   0.318   4.552
  706SOL     OW 1936   0.082   1.060   3.992
  706SOL    HW1 1937   0.172   1.018   3.983
  706SOL    HW2 1938   0.017   0.992   4.027
  707SOL     OW 1939   0.876   1.654   4.054
  707SOL    HW1 1940   0.798   1.632   3.996
  707SOL    HW2 1941   0.853   1.732   4.112
  708SOL     OW 1942   0.175   2.493   0.084
  708SOL    HW1 1943   0.121   2.468   0.165
  708SOL    HW2 1944   0.251   2.429   0.074
  709SOL     OW 1945   0.220   2.153   1.024
  709SOL    HW1 1946   0.258   2.128   1.113
  709SOL    HW2 1947   0.156   2.082   0.995
  710SOL     OW 1948   0.006   2.255   0.661
  710SOL    HW1 1949   5.055   2.275   0.751
  710SOL    HW2 1950   0.016   2.156   0.650
  711SOL     OW 1951   0.575   3.172   1.171
  711SOL    HW1 1952   0.489   3.167   1.121
  711SOL    HW2 1953   0.580   3.258   1.222
  712SOL     OW 1954   1.561   3.385   0.727
  712SOL    HW1 1955   1.524   3.358   0.816
  712SOL    HW2 1956   1.500   3.354   0.654
  713SOL     OW 1957   1.105   2.569   0.696
  713SOL    HW1 1958   1.156   2.649   0.665
  713SOL    HW2 1959   1.080   2.581   0.792
  714SOL     OW 1960   1.764   2.436   0.229
  714SOL    HW1 1961   1.724   2.419   0.139
  714SOL    HW2 1962   1.728   2.370   0.295
  715SOL     OW 1963   0.756   3.030   1.019
  715SOL    HW1 1964   0.686   3.060   1.084
  715SOL    HW2 1965   0.796   3.110   0.974
  716SOL     OW 1966   0.868   2.612   1.791
  716SOL    HW1 1967   0.849   2.671   1.869
  716SOL    HW2 1968   0.888   2.668   1.711
  717SOL     OW 1969   0.699   2.869   0.640
  717SOL    HW1 1970   0.776   2.857   0.702
  717SOL    HW2 1971   0.623   2.912   0.690
  718SOL     OW 1972   0.715   3.017   1.803
  718SOL    HW1 1973   0.765   3.096   1.838
  718SOL    HW2 1974   0.627   3.047   1.767
  719SOL     OW 1975   0.322   3.303   1.058
  719SOL    HW1 1976   0.267   3.248   0.995
  719SOL    HW2 1977   0.382   3.364   1.005
  720SOL     OW 1978   1.460   3.368   1.373
  720SOL    HW1 1979   1.523   3.445   1.380
  720SOL    HW2 1980   1.394   3.370   1.448
  721SOL     OW 1981   0.424   2.251   1.509
  721SOL    HW1 1982   0.501   2.188   1.510
  721SOL    HW2 1983   0.339   2.199   1.510
  722SOL     OW 1984   1.612   2.305   0.728
  722SOL    HW1 1985   1.529   2.338   0.683
  722SOL    HW2 1986   1.647   2.375   0.790
  723SOL     OW 1987   0.220   3.563   0.533
  723SOL    HW1 1988   0.250   3.655   0.561
  723SOL    HW2 1989   0.227   3.555   0.433
  724SOL     OW 1990   1.113   3.209   1.682
  724SOL    HW1 1991   1.166   3.207   1.767
  724SOL    HW2 1992   1.064   3.122   1.672
  725SOL     OW 1993   0.209   3.300   0.536
  725SOL    HW1 1994   0.219   3.399   0.540
  725SOL    HW2 1995   0.114   3.275   0.557
  726SOL     OW 1996   0.276   2.948   0.922
  726SOL    HW1 1997   0.261   2.853   0.949
  726SOL    HW2 1998   0.205   3.006   0.962
  727SOL     OW 1999   0.598   3.670   1.409
  727SOL    HW1 2000   0.521   3.640   1.465
  727SOL    HW2 2001   0.632   3.758   1.443
  728SOL     OW 2002   0.551   2.857   0.143
  728SOL    HW1 2003   0.607   2.894   0.069
  728SOL    HW2 2004   0.594   2.880   0.231
  729SOL     OW 2005   1.606   1.972   1.484
  729SOL    HW1 2006   1.615   2.053   1.427
  729SOL    HW2 2007   1.600   1.999   1.580
  730SOL     OW 2008   0.143   2.469   0.563
  730SOL    HW1 2009   0.088   2.390   0.591
  730SOL    HW2 2010   0.124   2.546   0.623
  731SOL     OW 2011   1.873   3.597   0.343
  731SOL    HW1 2012   1.940   3.566   0.410
  731SOL    HW2 2013   1.890   3.692   0.319
  732SOL     OW 2014   5.082   3.441   0.101
  732SOL    HW1 2015   0.006   3.350   0.142
  732SOL    HW2 2016   0.034   3.510   0.162
  733SOL     OW 2017   1.693   2.762   0.642
  733SOL    HW1 2018   1.767   2.709   0.600
  733SOL    HW2 2019   1.666   2.836   0.580
  734SOL     OW 2020   1.674   2.976   0.467
  734SOL    HW1 2021   1.757   2.985   0.413
  734SOL    HW2 2022   1.670   3.051   0.534
  735SOL     OW 2023   0.108   2.601   1.631
  735SOL    HW1 2024   0.188   2.646   1.671
  735SOL    HW2 2025   0.090   2.638   1.540
  736SOL     OW 2026   0.602   3.275   0.754
  736SOL    HW1 2027   0.573   3.186   0.790
  736SOL    HW2 2028   0.582   3.279   0.656
  737SOL     OW 2029   1.289   3.098   1.428
  737SOL    HW1 2030   1.311   3.028   1.360
  737SOL    HW2 2031   1.348   3.085   1.508
  738SOL     OW 2032   0.826   1.865   0.499
  738SOL    HW1 2033   0.862   1.958   0.498
  738SOL    HW2 2034   0.726   1.868   0.503
  739SOL     OW 2035   0.212   2.849   1.244
  739SOL    HW1 2036   0.303   2.810   1.225
  739SOL    HW2 2037   0.166   2.871   1.158
  740SOL     OW 2038   1.526   2.867   0.240
  740SOL    HW1 2039   1.449   2.806   0.260
  740SOL    HW2 2040   1.590   2.866   0.316
  741SOL     OW 2041   1.184   3.663   1.617
  741SOL    HW1 2042   1.193   3.735   1.548
  741SOL    HW2 2043   1.200   3.574   1.575
  742SOL     OW 2044   0.326   2.099   1.828
  742SOL    HW1 2045   0.397   2.164   1.855
  742SOL    HW2 2046   0.238   2.131   1.864
  743SOL     OW 2047   1.459   3.282   0.956
  743SOL    HW1 2048   1.398   3.309   1.031
  743SOL    HW2 2049   1.434   3.191   0.924
  744SOL     OW 2050   1.671   3.593   0.604
  744SOL    HW1 2051   1.651   3.568   0.509
  744SOL    HW2 2052   1.635   3.522   0.665
  745SOL     OW 2053   0.597   2.572   0.265
  745SOL    HW1 2054   0.625   2.659   0.224
  745SOL    HW2 2055   0.543   2.590   0.347
  746SOL     OW 2056   1.258   2.207   0.936
  746SOL    HW1 2057   1.168   2.167   0.951
  746SOL    HW2 2058   1.326   2.158   0.991
  747SOL     OW 2059   1.584   3.528   0.349
  747SOL    HW1 2060   1.682   3.545   0.337
  747SOL    HW2 2061   1.544   3.498   0.262
  748SOL     OW 2062   0.800   2.477   1.450
  748SOL    HW1 2063   0.787   2.439   1.541
  748SOL    HW2 2064   0.755   2.418   1.383
  749SOL     OW 2065   1.394   2.330   1.660
  749SOL    HW1 2066   1.403   2.389   1.741
  749SOL    HW2 2067   1.450   2.249   1.671
  750SOL     OW 2068   0.952   2.747   1.575
  750SOL    HW1 2069   0.993   2.663   1.541
  750SOL    HW2 2070   0.900   2.791   1.502
  751SOL     OW 2071   0.945   2.239   1.235
  751SOL    HW1 2072   0.854   2.276   1.250
  751SOL    HW2 2073   0.940   2.166   1.166
  752SOL     OW 2074   1.028   2.553   0.413
  752SOL    HW1 2075   1.050   2.566   0.510
  752SOL    HW2 2076   0.945   2.498   0.405
  753SOL     OW 2077   0.107   2.677   0.757
  753SOL    HW1 2078   0.196   2.674   0.803
  753SOL    HW2 2079   0.037   2.710   0.821
  754SOL     OW 2080   0.125   3.742   1.590
  754SOL    HW1 2081   0.139   3.715   1.685
  754SOL    HW2 2082   0.034   3.713   1.560
  755SOL     OW 2083   0.870   2.227   0.228
  755SOL    HW1 2084   0.908   2.287   0.157
  755SOL    HW2 2085   0.875   2.132   0.197
  756SOL     OW 2086   1.706   2.451   1.818
  756SOL    HW1 2087   1.667   2.529   1.768
  756SOL    HW2 2088   1.736   2.381   1.753
  757SOL     OW 2089   1.361   3.027   0.574
  757SOL    HW1 2090   1.452   3.033   0.532
  757SOL    HW2 2091   1.298   3.089   0.527
  758SOL     OW 2092   0.559   2.072   0.892
  758SOL    HW1 2093   0.563   2.073   0.992
  758SOL    HW2 2094   0.551   2.166   0.858
  759SOL     OW 2095   0.973   3.289   0.497
  759SOL    HW1 2096   0.939   3.364   0.441
  759SOL    HW2 2097   0.979   3.317   0.593
  760SOL     OW 2098   0.363   3.666   0.855
  760SOL    HW1 2099   0.400   3.577   0.881
  760SOL    HW2 2100   0.427   3.738   0.881
  761SOL     OW 2101   1.795   2.908   0.885
  761SOL    HW1 2102   1.750   2.881   0.800
  761SOL    HW2 2103   1.726   2.917   0.957
  762SOL     OW 2104   1.217   3.413   1.508
  762SOL    HW1 2105   1.192   3.347   1.578
  762SOL    HW2 2106   1.174   3.387   1.421
  763SOL     OW 2107   0.304   2.783   0.242
  763SOL    HW1 2108   0.385   2.819   0.198
  763SOL    HW2 2109   0.297   2.685   0.224
  764SOL     OW 2110   1.472   2.604   0.688
  764SOL    HW1 2111   1.460   2.575   0.783
  764SOL    HW2 2112   1.554   2.661   0.680
  765SOL     OW 2113   0.464   3.127   1.730
  765SOL    HW1 2114   0.440   3.122   1.633
  765SOL    HW2 2115   0.383   3.151   1.783
  766SOL     OW 2116   1.061   3.642   0.222
  766SOL    HW1 2117   1.022   3.585   0.294
  766SOL    HW2 2118   1.136   3.594   0.177
  767SOL     OW 2119   0.166   2.146   1.508
  767SOL    HW1 2120   0.086   2.182   1.462
  767SOL    HW2 2121   0.142   2.061   1.555
  768SOL     OW 2122   1.673   3.272   0.069
  768SOL    HW1 2123   1.592   3.328   0.051
  768SOL    HW2 2124   1.649   3.175   0.058
  769SOL     OW 2125   0.472   3.564   0.326
  769SOL    HW1 2126   0.509   3.636   0.385
  769SOL    HW2 2127   0.544   3.529   0.267
  770SOL     OW 2128   1.417   1.962   0.473
  770SOL    HW1 2129   1.392   1.930   0.381
  770SOL    HW2 2130   1.516   1.971   0.479
  771SOL     OW 2131   0.261   3.654   1.231
  771SOL    HW1 2132   0.310   3.586   1.286
  771SOL    HW2 2133   0.225   3.610   1.149
  772SOL     OW 2134   0.953   3.560   0.908
  772SOL    HW1 2135   1.047   3.531   0.928
  772SOL    HW2 2136   0.914   3.500   0.838
  773SOL     OW 2137   0.416   2.552   0.479
  773SOL    HW1 2138   0.422   2.452   0.482
  773SOL    HW2 2139   0.329   2.582   0.520
  774SOL     OW 2140   1.525   2.094   1.720
  774SOL    HW1 2141   1.533   2.110   1.819
  774SOL    HW2 2142   1.461   2.020   1.703
  775SOL     OW 2143   0.764   2.123   1.757
  775SOL    HW1 2144   0.839   2.057   1.752
  775SOL    HW2 2145   0.698   2.093   1.826
  776SOL     OW 2146   0.884   3.399   1.209
  776SOL    HW1 2147   0.877   3.377   1.111
  776SOL    HW2 2148   0.953   3.341   1.251
  777SOL     OW 2149   1.324   2.469   1.435
  777SOL    HW1 2150   1.359   2.429   1.520
  777SOL    HW2 2151   1.384   2.544   1.407
  778SOL     OW 2152   0.821   3.271   0.928
  778SOL    HW1 2153   0.912   3.260   0.887
  778SOL    HW2 2154   0.753   3.278   0.855
  779SOL     OW 2155   0.914   2.364   0.898
  779SOL    HW1 2156   0.871   2.339   0.811
  779SOL    HW2 2157   0.953   2.283   0.940
  780SOL     OW 2158   0.565   1.916   0.479
  780SOL    HW1 2159   0.491   1.919   0.546
  780SOL    HW2 2160   0.554   1.991   0.414
  781SOL     OW 2161   1.467   3.034   0.021
  781SOL    HW1 2162   1.484   2.953   0.078
  781SOL    HW2 2163   1.405   3.096   0.070
  782SOL     OW 2164   0.383   1.905   0.135
  782SOL    HW1 2165   0.406   1.986   0.188
  782SOL    HW2 2166   0.388   1.824   0.193
  783SOL     OW 2167   0.952   2.118   0.491
  783SOL    HW1 2168   0.927   2.158   0.403
  783SOL    HW2 2169   1.050   2.132   0.507
  784SOL     OW 2170   1.073   2.536   1.474
  784SOL    HW1 2171   1.018   2.453   1.466
  784SOL    HW2 2172   1.170   2.514   1.462
  785SOL     OW 2173   1.235   3.441   0.778
  785SOL    HW1 2174   1.231   3.500   0.698
  785SOL    HW2 2175   1.310   3.471   0.838
  786SOL     OW 2176   0.463   2.986   0.736
  786SOL    HW1 2177   0.397   2.966   0.808
  786SOL    HW2 2178   0.422   2.966   0.647
  787SOL     OW 2179   1.260   3.662   0.604
  787SOL    HW1 2180   1.328   3.722   0.561
  787SOL    HW2 2181   1.207   3.715   0.671
  788SOL     OW 2182   1.021   2.386   0.062
  788SOL    HW1 2183   1.004   2.471   0.012
  788SOL    HW2 2184   1.093   2.401   0.130
  789SOL     OW 2185   0.075   2.420   1.374
  789SOL    HW1 2186   0.171   2.414   1.348
  789SOL    HW2 2187   0.055   2.512   1.407
  790SOL     OW 2188   0.567   2.077   1.159
  790SOL    HW1 2189   0.628   2.012   1.204
  790SOL    HW2 2190   0.474   2.066   1.196
  791SOL     OW 2191   0.800   2.306   0.669
  791SOL    HW1 2192   0.784   2.387   0.612
  791SOL    HW2 2193   0.835   2.231   0.612
  792SOL     OW 2194   1.027   1.915   0.759
  792SOL    HW1 2195   0.974   1.908   0.674
  792SOL    HW2 2196   1.005   1.837   0.818
  793SOL     OW 2197   1.414   3.034   0.874
  793SOL    HW1 2198   1.365   2.956   0.912
  793SOL    HW2 2199   1.410   3.031   0.775
  794SOL     OW 2200   1.450   2.456   1.010
  794SOL    HW1 2201   1.402   2.368   1.001
  794SOL    HW2 2202   1.519   2.449   1.082
  795SOL     OW 2203   1.833   2.689   0.396
  795SOL    HW1 2204   1.887   2.615   0.436
  795SOL    HW2 2205   1.820   2.673   0.299
  796SOL     OW 2206   0.497   3.241   0.149
  796SOL    HW1 2207   0.508   3.207   0.242
  796SOL    HW2 2208   0.406   3.218   0.116
  797SOL     OW 2209   1.684   3.153   0.666
  797SOL    HW1 2210   1.783   3.149   0.678
  797SOL    HW2 2211   1.649   3.240   0.700
  798SOL     OW 2212   1.367   2.408   0.091
  798SOL    HW1 2213   1.322   2.418   0.179
  798SOL    HW2 2214   1.437   2.336   0.097
  799SOL     OW 2215   0.546   2.102   0.287
  799SOL    HW1 2216   0.643   2.101   0.262
  799SOL    HW2 2217   0.504   2.185   0.250
  800SOL     OW 2218   1.729   3.089   1.571
  800SOL    HW1 2219   1.823   3.058   1.556
  800SOL    HW2 2220   1.730   3.185   1.602
  801SOL     OW 2221   1.064   3.225   1.352
  801SOL    HW1 2222   0.981   3.198   1.401
  801SOL    HW2 2223   1.142   3.176   1.391
  802SOL     OW 2224   1.621   3.466   1.631
  802SOL    HW1 2225   1.618   3.507   1.540
  802SOL    HW2 2226   1.708   3.417   1.642
  803SOL     OW 2227   1.122   3.086   1.101
  803SOL    HW1 2228   1.054   3.103   1.173
  803SOL    HW2 2229   1.101   3.143   1.022
  804SOL     OW 2230   1.603   2.974   1.072
  804SOL    HW1 2231   1.608   3.031   1.154
  804SOL    HW2 2232   1.540   3.015   1.006
  805SOL     OW 2233   0.950   1.946   1.401
  805SOL    HW1 2234   0.971   1.926   1.305
  805SOL    HW2 2235   1.024   2.002   1.439
  806SOL     OW 2236   0.984   2.972   1.731
  806SOL    HW1 2237   0.889   2.989   1.759
  806SOL    HW2 2238   0.987   2.895   1.668
  807SOL     OW 2239   0.707   2.907   0.373
  807SOL    HW1 2240   0.701   2.899   0.472
  807SOL    HW2 2241   0.784   2.852   0.340
  808SOL     OW 2242   0.438   2.676   1.244
  808SOL    HW1 2243   0.509   2.677   1.315
  808SOL    HW2 2244   0.386   2.590   1.250
  809SOL     OW 2245   1.293   2.253   1.278
  809SOL    HW1 2246   1.310   2.330   1.339
  809SOL    HW2 2247   1.204   2.262   1.235
  810SOL     OW 2248   0.055   3.453   1.296
  810SOL    HW1 2249   0.007   3.483   1.378
  810SOL    HW2 2250   0.153   3.446   1.315
  811SOL     OW 2251   0.344   2.949   0.495
  811SOL    HW1 2252   0.337   3.030   0.437
  811SOL    HW2 2253   0.344   2.866   0.439
  812SOL     OW 2254   0.555   2.401   0.854
  812SOL    HW1 2255   0.582   2.469   0.787
  812SOL    HW2 2256   0.618   2.403   0.932
  813SOL     OW 2257   1.204   3.183   0.412
  813SOL    HW1 2258   1.264   3.261   0.430
  813SOL    HW2 2259   1.111   3.206   0.440
  814SOL     OW 2260   1.302   3.335   1.168
  814SOL    HW1 2261   1.365   3.349   1.245
  814SOL    HW2 2262   1.241   3.258   1.188
  815SOL     OW 2263   1.564   2.464   0.457
  815SOL    HW1 2264   1.515   2.510   0.531
  815SOL    HW2 2265   1.602   2.532   0.395
  816SOL     OW 2266   0.343   3.390   1.309
  816SOL    HW1 2267   0.320   3.340   1.226
  816SOL    HW2 2268   0.442   3.404   1.313
  817SOL     OW 2269   0.445   2.578   1.634
  817SOL    HW1 2270   0.483   2.628   1.556
  817SOL    HW2 2271   0.479   2.484   1.634
  818SOL     OW 2272   1.608   2.648   1.673
  818SOL    HW1 2273   1.515   2.685   1.671
  818SOL    HW2 2274   1.662   2.690   1.599
  819SOL     OW 2275   0.978   1.965   1.734
  819SOL    HW1 2276   1.033   2.048   1.740
  819SOL    HW2 2277   1.031   1.892   1.691
  820SOL     OW 2278   0.476   1.887   1.738
  820SOL    HW1 2279   0.435   1.823   1.672
  820SOL    HW2 2280   0.412   1.963   1.753
  821SOL     OW 2281   0.585   2.752   1.030
  821SOL    HW1 2282   0.605   2.850   1.029
  821SOL    HW2 2283   0.538   2.729   1.114
  822SOL     OW 2284   1.334   2.710   1.034
  822SOL    HW1 2285   1.242   2.685   1.001
  822SOL    HW2 2286   1.391   2.628   1.038
  823SOL     OW 2287   1.187   2.368   0.294
  823SOL    HW1 2288   1.216   2.298   0.360
  823SOL    HW2 2289   1.135   2.439   0.341
  824SOL     OW 2290   0.317   2.040   1.260
  824SOL    HW1 2291   0.274   2.065   1.346
  824SOL    HW2 2292   0.301   1.943   1.241
  825SOL     OW 2293   0.093   3.180   1.265
  825SOL    HW1 2294   0.070   3.138   1.353
  825SOL    HW2 2295   0.074   3.278   1.269
  826SOL     OW 2296   0.748   2.511   1.060
  826SOL    HW1 2297   0.812   2.466   0.997
  826SOL    HW2 2298   0.717   2.597   1.020
  827SOL     OW 2299   1.705   2.859   1.818
  827SOL    HW1 2300   1.675   2.783   1.761
  827SOL    HW2 2301   1.648   2.863   1.901
  828SOL     OW 2302   0.331   1.931   0.623
  828SOL    HW1 2303   0.306   2.021   0.659
  828SOL    HW2 2304   0.343   1.867   0.699
  829SOL     OW 2305   1.640   2.228   0.367
  829SOL    HW1 2306   1.644   2.149   0.428
  829SOL    HW2 2307   1.605   2.307   0.418
  830SOL     OW 2308   1.049   2.598   0.966
  830SOL    HW1 2309   1.029   2.622   1.061
  830SOL    HW2 2310   1.015   2.506   0.947
  831SOL     OW 2311   0.971   3.431   1.698
  831SOL    HW1 2312   0.957   3.479   1.611
  831SOL    HW2 2313   1.007   3.339   1.679
  832SOL     OW 2314   1.858   3.349   1.613
  832SOL    HW1 2315   1.871   3.365   1.515
  832SOL    HW2 2316   1.941   3.376   1.662
  833SOL     OW 2317   0.370   2.765   1.801
  833SOL    HW1 2318   0.445   2.798   1.858
  833SOL    HW2 2319   0.402   2.689   1.744
  834SOL     OW 2320   1.516   2.143   0.138
  834SOL    HW1 2321   1.449   2.079   0.176
  834SOL    HW2 2322   1.576   2.176   0.210
  835SOL     OW 2323   1.309   2.693   0.036
  835SOL    HW1 2324   1.347   2.604   0.010
  835SOL    HW2 2325   1.307   2.753   5.043
  836SOL     OW 2326   1.081   3.231   0.863
  836SOL    HW1 2327   1.082   3.152   0.802
  836SOL    HW2 2328   1.141   3.302   0.826
  837SOL     OW 2329   0.303   2.677   0.958
  837SOL    HW1 2330   0.401   2.693   0.952
  837SOL    HW2 2331   0.285   2.594   1.011
  838SOL     OW 2332   0.332   2.398   1.003
  838SOL    HW1 2333   0.294   2.306   0.993
  838SOL    HW2 2334   0.407   2.410   0.938
  839SOL     OW 2335   1.140   2.220   1.705
  839SOL    HW1 2336   1.088   2.284   1.761
  839SOL    HW2 2337   1.234   2.252   1.695
  840SOL     OW 2338   1.177   2.060   1.485
  840SOL    HW1 2339   1.172   2.123   1.563
  840SOL    HW2 2340   1.224   2.105   1.409
  841SOL     OW 2341   5.074   3.189   0.192
  841SOL    HW1 2342   5.013   3.219   0.266
  841SOL    HW2 2343   0.020   3.097   0.211
  842SOL     OW 2344   0.110   3.642   0.938
  842SOL    HW1 2345   0.053   3.617   0.859
  842SOL    HW2 2346   0.205   3.651   0.908
  843SOL     OW 2347   0.503   3.455   0.930
  843SOL    HW1 2348   0.577   3.521   0.940
  843SOL    HW2 2349   0.529   3.385   0.864
  844SOL     OW 2350   0.967   2.629   1.233
  844SOL    HW1 2351   1.017   2.598   1.314
  844SOL    HW2 2352   0.871   2.601   1.240
  845SOL     OW 2353   0.083   2.481   1.100
  845SOL    HW1 2354   0.152   2.419   1.062
  845SOL    HW2 2355   0.058   2.451   1.192
  846SOL     OW 2356   0.200   2.368   1.732
  846SOL    HW1 2357   0.260   2.318   1.669
  846SOL    HW2 2358   0.162   2.448   1.686
  847SOL     OW 2359   1.361   2.778   1.640
  847SOL    HW1 2360   1.398   2.870   1.641
  847SOL    HW2 2361   1.349   2.747   1.545
  848SOL     OW 2362   0.794   2.413   0.396
  848SOL    HW1 2363   0.819   2.344   0.329
  848SOL    HW2 2364   0.727   2.476   0.355
  849SOL     OW 2365   1.642   2.483   1.208
  849SOL    HW1 2366   1.606   2.421   1.277
  849SOL    HW2 2367   1.721   2.441   1.163
  850SOL     OW 2368   0.241   3.418   1.720
  850SOL    HW1 2369   0.219   3.497   1.776
  850SOL    HW2 2370   0.230   3.334   1.773
  851SOL     OW 2371   0.676   2.338   1.257
  851SOL    HW1 2372   0.618   2.264   1.223
  851SOL    HW2 2373   0.685   2.408   1.186
  852SOL     OW 2374   0.901   3.543   1.463
  852SOL    HW1 2375   0.890   3.507   1.370
  852SOL    HW2 2376   0.910   3.643   1.458
  853SOL     OW 2377   0.439   2.338   0.189
  853SOL    HW1 2378   0.493   2.419   0.211
  853SOL    HW2 2379   0.354   2.339   0.243
  854SOL     OW 2380   0.144   2.991   1.488
  854SOL    HW1 2381   0.153   2.941   1.575
  854SOL    HW2 2382   0.166   2.929   1.413
  855SOL     OW 2383   1.303   2.914   1.217
  855SOL    HW1 2384   1.325   2.844   1.148
  855SOL    HW2 2385   1.233   2.975   1.180
  856SOL     OW 2386   1.321   2.711   0.301
  856SOL    HW1 2387   1.235   2.677   0.341
  856SOL    HW2 2388   1.316   2.706   0.202
  857SOL     OW 2389   1.758   3.609   1.139
  857SOL    HW1 2390   1.837   3.632   1.081
  857SOL    HW2 2391   1.734   3.513   1.127
  858SOL     OW 2392   1.251   3.594   1.099
  858SOL    HW1 2393   1.337   3.623   1.058
  858SOL    HW2 2394   1.258   3.498   1.127
  859SOL     OW 2395   0.080   3.088   1.024
  859SOL    HW1 2396   0.086   3.120   1.118
  859SOL    HW2 2397   5.072   3.095   0.993
  860SOL     OW 2398   0.685   3.506   1.753
  860SOL    HW1 2399   0.636   3.587   1.719
  860SOL    HW2 2400   0.778   3.505   1.716
  861SOL     OW 2401   0.867   1.967   0.154
  861SOL    HW1 2402   0.884   1.973   0.056
  861SOL    HW2 2403   0.941   1.916   0.198
  862SOL     OW 2404   1.694   1.993   0.494
  862SOL    HW1 2405   1.767   1.985   0.426
  862SOL    HW2 2406   1.685   1.907   0.543
  863SOL     OW 2407   1.359   3.417   0.483
  863SOL    HW1 2408   1.447   3.424   0.437
  863SOL    HW2 2409   1.323   3.509   0.501
  864SOL     OW 2410   0.147   3.642   1.854
  864SOL    HW1 2411   0.092   3.568   1.892
  864SOL    HW2 2412   0.207   3.680   1.925
  865SOL     OW 2413   1.255   2.784   0.628
  865SOL    HW1 2414   1.334   2.725   0.646
  865SOL    HW2 2415   1.287   2.872   0.594
  866SOL     OW 2416   0.811   3.148   1.447
  866SOL    HW1 2417   0.768   3.204   1.518
  866SOL    HW2 2418   0.751   3.145   1.367
  867SOL     OW 2419   0.674   3.468   0.185
  867SOL    HW1 2420   0.684   3.519   0.100
  867SOL    HW2 2421   0.640   3.376   0.165
  868SOL     OW 2422   1.627   3.577   1.385
  868SOL    HW1 2423   1.678   3.586   1.300
  868SOL    HW2 2424   1.607   3.668   1.422
  869SOL     OW 2425   1.851   2.025   0.955
  869SOL    HW1 2426   1.874   1.929   0.939
  869SOL    HW2 2427   1.762   2.045   0.914
  870SOL     OW 2428   0.273   2.166   0.743
  870SOL    HW1 2429   0.220   2.244   0.709
  870SOL    HW2 2430   0.260   2.158   0.842
  871SOL     OW 2431   1.211   3.473   0.071
  871SOL    HW1 2432   1.209   3.375   0.091
  871SOL    HW2 2433   1.160   3.490   5.073
  872SOL     OW 2434   0.813   2.881   1.394
  872SOL    HW1 2435   0.827   2.881   1.295
  872SOL    HW2 2436   0.823   2.974   1.429
  873SOL     OW 2437   0.912   2.769   0.266
  873SOL    HW1 2438   0.983   2.810   0.208
  873SOL    HW2 2439   0.949   2.690   0.313
  874SOL     OW 2440   1.461   3.421   5.083
  874SOL    HW1 2441   1.376   3.445   0.043
  874SOL    HW2 2442   1.527   3.495   0.008
  875SOL     OW 2443   0.372   3.125   1.473
  875SOL    HW1 2444   0.360   3.210   1.422
  875SOL    HW2 2445   0.286   3.076   1.477
  876SOL     OW 2446   1.592   3.159   1.278
  876SOL    HW1 2447   1.644   3.141   1.362
  876SOL    HW2 2448   1.524   3.229   1.296
  877SOL     OW 2449   1.042   3.000   0.719
  877SOL    HW1 2450   0.978   2.936   0.761
  877SOL    HW2 2451   1.111   2.949   0.667
  878SOL     OW 2452   1.018   2.085   0.980
  878SOL    HW1 2453   1.013   2.046   0.888
  878SOL    HW2 2454   1.025   2.011   1.047
  879SOL     OW 2455   0.595   3.330   0.484
  879SOL    HW1 2456   0.661   3.295   0.418
  879SOL    HW2 2457   0.541   3.403   0.441
  880SOL     OW 2458   1.704   2.236   1.369
  880SOL    HW1 2459   1.767   2.313   1.373
  880SOL    HW2 2460   1.741   2.165   1.308
  881SOL     OW 2461   0.308   3.154   0.341
  881SOL    HW1 2462   0.276   3.176   0.249
  881SOL    HW2 2463   0.266   3.216   0.407
  882SOL     OW 2464   0.145   2.893   1.738
  882SOL    HW1 2465   0.070   2.858   1.794
  882SOL    HW2 2466   0.231   2.851   1.768
  883SOL     OW 2467   0.714   2.062   1.476
  883SOL    HW1 2468   0.802   2.027   1.444
  883SOL    HW2 2469   0.723   2.095   1.570
  884SOL     OW 2470   0.074   2.203   0.050
  884SOL    HW1 2471   5.066   2.172   0.058
  884SOL    HW2 2472   0.080   2.273   5.065
  885SOL     OW 2473   1.448   2.729   1.376
  885SOL    HW1 2474   1.394   2.793   1.322
  885SOL    HW2 2475   1.546   2.747   1.362
  886SOL     OW 2476   0.031   2.053   0.328
  886SOL    HW1 2477   0.049   2.119   0.255
  886SOL    HW2 2478   0.087   1.971   0.314
  887SOL     OW 2479   1.200   3.211   0.129
  887SOL    HW1 2480   1.101   3.205   0.121
  887SOL    HW2 2481   1.226   3.196   0.225
  888SOL     OW 2482   0.626   2.678   1.431
  888SOL    HW1 2483   0.674   2.766   1.440
  888SOL    HW2 2484   0.691   2.603   1.445
  889SOL     OW 2485   1.508   3.641   0.970
  889SOL    HW1 2486   1.556   3.672   0.888
  889SOL    HW2 2487   1.574   3.609   1.038
  890SOL     OW 2488   0.717   2.389   1.686
  890SOL    HW1 2489   0.751   2.460   1.748
  890SOL    HW2 2490   0.732   2.299   1.727
  891SOL     OW 2491   1.471   3.033   1.627
  891SOL    HW1 2492   1.454   3.046   1.724
  891SOL    HW2 2493   1.568   3.048   1.607
  892SOL     OW 2494   0.367   3.590   1.555
  892SOL    HW1 2495   0.286   3.648   1.546
  892SOL    HW2 2496   0.342   3.505   1.602
  893SOL     OW 2497   1.706   2.753   1.239
  893SOL    HW1 2498   1.687   2.658   1.213
  893SOL    HW2 2499   1.667   2.814   1.169
  894SOL     OW 2500   1.224   2.187   0.493
  894SOL    HW1 2501   1.287   2.109   0.485
  894SOL    HW2 2502   1.250   2.242   0.572
  895SOL     OW 2503   0.621   2.590   0.657
  895SOL    HW1 2504   0.657   2.683   0.654
  895SOL    HW2 2505   0.546   2.581   0.591
  896SOL     OW 2506   1.752   2.235   1.636
  896SOL    HW1 2507   1.738   2.247   1.538
  896SOL    HW2 2508   1.680   2.177   1.674
  897SOL     OW 2509   1.743   2.797   1.501
  897SOL    HW1 2510   1.738   2.896   1.512
  897SOL    HW2 2511   1.751   2.775   1.404
  898SOL     OW 2512   0.925   3.218   0.072
  898SOL    HW1 2513   0.856   3.204   0.143
  898SOL    HW2 2514   0.913   3.309   0.032
  899SOL     OW 2515   0.654   3.684   0.916
  899SOL    HW1 2516   0.638   3.779   0.892
  899SOL    HW2 2517   0.753   3.666   0.914
  900SOL     OW 2518   0.882   2.810   0.839
  900SOL    HW1 2519   0.928   2.729   0.876
  900SOL    HW2 2520   0.852   2.869   0.914
  901SOL     OW 2521   1.089   2.847   0.070
  901SOL    HW1 2522   1.117   2.929   0.020
  901SOL    HW2 2523   1.164   2.782   0.073
  902SOL     OW 2524   1.850   3.431   0.865
  902SOL    HW1 2525   1.767   3.421   0.811
  902SOL    HW2 2526   1.874   3.343   0.907
  903SOL     OW 2527   0.230   3.184   1.857
  903SOL    HW1 2528   0.176   3.117   1.807
  903SOL    HW2 2529   0.201   3.186   1.952
  904SOL     OW 2530   0.080   3.082   0.672
  904SOL    HW1 2531   0.152   3.109   0.735
  904SOL    HW2 2532   0.120   3.057   0.584
  905SOL     OW 2533   0.662   3.272   1.627
  905SOL    HW1 2534   0.587   3.212   1.655
  905SOL    HW2 2535   0.654   3.360   1.674
  906SOL     OW 2536   1.802   2.036   1.219
  906SOL    HW1 2537   1.819   1.940   1.239
  906SOL    HW2 2538   1.819   2.053   1.121
  907SOL     OW 2539   0.443   2.280   0.510
  907SOL    HW1 2540   0.524   2.237   0.469
  907SOL    HW2 2541   0.440   2.258   0.608
  908SOL     OW 2542   1.676   3.363   1.104
  908SOL    HW1 2543   1.602   3.333   1.045
  908SOL    HW2 2544   1.700   3.290   1.168
  909SOL     OW 2545   0.333   2.412   1.280
  909SOL    HW1 2546   0.388   2.364   1.348
  909SOL    HW2 2547   0.352   2.376   1.190
  910SOL     OW 2548   0.828   3.460   0.662
  910SOL    HW1 2549   0.827   3.480   0.564
  910SOL    HW2 2550   0.743   3.414   0.687
  911SOL     OW 2551   1.434   2.097   1.096
  911SOL    HW1 2552   1.484   2.018   1.131
  911SOL    HW2 2553   1.394   2.148   1.173
  912SOL     OW 2554   1.015   1.865   1.143
  912SOL    HW1 2555   0.952   1.802   1.098
  912SOL    HW2 2556   1.107   1.824   1.145
  913SOL     OW 2557   0.772   3.198   0.316
  913SOL    HW1 2558   0.734   3.105   0.318
  913SOL    HW2 2559   0.849   3.203   0.379
  914SOL     OW 2560   0.612   3.419   1.284
  914SOL    HW1 2561   0.603   3.508   1.330
  914SOL    HW2 2562   0.707   3.406   1.255
  915SOL     OW 2563   1.342   1.907   0.216
  915SOL    HW1 2564   1.387   1.858   0.141
  915SOL    HW2 2565   1.265   1.960   0.179
  916SOL     OW 2566   1.278   2.353   0.713
  916SOL    HW1 2567   1.211   2.428   0.709
  916SOL    HW2 2568   1.270   2.305   0.800
  917SOL     OW 2569   1.599   2.066   0.860
  917SOL    HW1 2570   1.525   2.074   0.926
  917SOL    HW2 2571   1.594   2.143   0.795
  918SOL     OW 2572   0.063   2.936   0.282
  918SOL    HW1 2573   0.154   2.896   0.275
  918SOL    HW2 2574   0.003   2.876   0.334
  919SOL     OW 2575   0.871   3.506   0.369
  919SOL    HW1 2576   0.804   3.491   0.297
  919SOL    HW2 2577   0.855   3.596   0.411
  920SOL     OW 2578   0.214   2.490   1.992
  920SOL    HW1 2579   0.146   2.428   2.032
  920SOL    HW2 2580   0.240   2.457   1.901
  921SOL     OW 2581   0.206   2.156   2.890
  921SOL    HW1 2582   0.246   2.131   2.978
  921SOL    HW2 2583   0.148   2.081   2.857
  922SOL     OW 2584   5.079   2.264   2.493
  922SOL    HW1 2585   5.044   2.262   2.587
  922SOL    HW2 2586   0.046   2.181   2.477
  923SOL     OW 2587   0.574   3.183   3.024
  923SOL    HW1 2588   0.481   3.173   2.990
  923SOL    HW2 2589   0.584   3.272   3.069
  924SOL     OW 2590   1.527   3.399   2.570
  924SOL    HW1 2591   1.488   3.402   2.662
  924SOL    HW2 2592   1.455   3.414   2.502
  925SOL     OW 2593   1.753   2.449   2.095
  925SOL    HW1 2594   1.741   2.453   1.996
  925SOL    HW2 2595   1.711   2.366   2.131
  926SOL     OW 2596   0.765   3.038   2.909
  926SOL    HW1 2597   0.688   3.076   2.960
  926SOL    HW2 2598   0.803   3.109   2.849
  927SOL     OW 2599   0.862   2.631   3.655
  927SOL    HW1 2600   0.841   2.694   3.730
  927SOL    HW2 2601   0.896   2.682   3.576
  928SOL     OW 2602   0.706   2.847   2.529
  928SOL    HW1 2603   0.781   2.837   2.594
  928SOL    HW2 2604   0.636   2.907   2.568
  929SOL     OW 2605   0.711   3.020   3.674
  929SOL    HW1 2606   0.768   3.094   3.709
  929SOL    HW2 2607   0.624   3.059   3.642
  930SOL     OW 2608   0.325   3.308   2.931
  930SOL    HW1 2609   0.269   3.250   2.872
  930SOL    HW2 2610   0.385   3.365   2.874
  931SOL     OW 2611   1.462   3.363   3.247
  931SOL    HW1 2612   1.526   3.439   3.257
  931SOL    HW2 2613   1.382   3.379   3.305
  932SOL     OW 2614   0.457   2.263   3.379
  932SOL    HW1 2615   0.538   2.205   3.371
  932SOL    HW2 2616   0.375   2.206   3.374
  933SOL     OW 2617   0.236   3.550   2.333
  933SOL    HW1 2618   0.246   3.633   2.389
  933SOL    HW2 2619   0.289   3.561   2.249
  934SOL     OW 2620   1.126   3.220   3.549
  934SOL    HW1 2621   1.172   3.221   3.638
  934SOL    HW2 2622   1.082   3.132   3.535
  935SOL     OW 2623   0.229   3.293   2.398
  935SOL    HW1 2624   0.232   3.391   2.381
  935SOL    HW2 2625   0.135   3.265   2.418
  936SOL     OW 2626   0.286   2.952   2.780
  936SOL    HW1 2627   0.274   2.859   2.814
  936SOL    HW2 2628   0.216   3.011   2.820
  937SOL     OW 2629   0.596   3.667   3.278
  937SOL    HW1 2630   0.516   3.639   3.331
  937SOL    HW2 2631   0.626   3.757   3.308
  938SOL     OW 2632   0.572   2.852   1.983
  938SOL    HW1 2633   0.621   2.895   1.908
  938SOL    HW2 2634   0.615   2.877   2.070
  939SOL     OW 2635   1.602   1.962   3.374
  939SOL    HW1 2636   1.603   2.029   3.299
  939SOL    HW2 2637   1.639   2.003   3.456
  940SOL     OW 2638   0.152   2.481   2.440
  940SOL    HW1 2639   0.084   2.409   2.450
  940SOL    HW2 2640   0.133   2.554   2.505
  941SOL     OW 2641   1.858   3.617   2.210
  941SOL    HW1 2642   1.911   3.588   2.290
  941SOL    HW2 2643   1.877   3.713   2.190
  942SOL     OW 2644   0.018   3.451   2.016
  942SOL    HW1 2645   0.005   3.352   2.018
  942SOL    HW2 2646   5.040   3.495   2.079
  943SOL     OW 2647   1.653   2.986   2.290
  943SOL    HW1 2648   1.745   2.948   2.287
  943SOL    HW2 2649   1.649   3.059   2.357
  944SOL     OW 2650   0.101   2.605   3.493
  944SOL    HW1 2651   0.187   2.646   3.523
  944SOL    HW2 2652   0.075   2.643   3.405
  945SOL     OW 2653   0.618   3.267   2.622
  945SOL    HW1 2654   0.590   3.175   2.647
  945SOL    HW2 2655   0.598   3.283   2.525
  946SOL     OW 2656   1.290   3.072   3.282
  946SOL    HW1 2657   1.301   2.974   3.266
  946SOL    HW2 2658   1.349   3.100   3.358
  947SOL     OW 2659   0.812   1.854   2.369
  947SOL    HW1 2660   0.850   1.945   2.355
  947SOL    HW2 2661   0.713   1.860   2.379
  948SOL     OW 2662   0.208   2.850   3.111
  948SOL    HW1 2663   0.300   2.815   3.093
  948SOL    HW2 2664   0.157   2.854   3.025
  949SOL     OW 2665   1.546   2.837   2.051
  949SOL    HW1 2666   1.473   2.773   2.077
  949SOL    HW2 2667   1.577   2.886   2.133
  950SOL     OW 2668   1.184   3.664   3.473
  950SOL    HW1 2669   1.184   3.741   3.409
  950SOL    HW2 2670   1.207   3.580   3.424
  951SOL     OW 2671   0.323   2.085   3.715
  951SOL    HW1 2672   0.396   2.152   3.724
  951SOL    HW2 2673   0.236   2.127   3.739
  952SOL     OW 2674   1.460   3.284   2.823
  952SOL    HW1 2675   1.403   3.310   2.901
  952SOL    HW2 2676   1.401   3.251   2.749
  953SOL     OW 2677   1.658   3.600   2.445
  953SOL    HW1 2678   1.634   3.568   2.353
  953SOL    HW2 2679   1.623   3.536   2.513
  954SOL     OW 2680   0.595   2.578   2.122
  954SOL    HW1 2681   0.592   2.666   2.076
  954SOL    HW2 2682   0.520   2.571   2.188
  955SOL     OW 2683   1.260   2.215   2.791
  955SOL    HW1 2684   1.170   2.175   2.808
  955SOL    HW2 2685   1.323   2.186   2.863
  956SOL     OW 2686   1.575   3.518   2.160
  956SOL    HW1 2687   1.670   3.543   2.180
  956SOL    HW2 2688   1.565   3.499   2.062
  957SOL     OW 2689   0.808   2.482   3.331
  957SOL    HW1 2690   0.784   2.450   3.422
  957SOL    HW2 2691   0.762   2.426   3.262
  958SOL     OW 2692   1.392   2.338   3.522
  958SOL    HW1 2693   1.391   2.403   3.598
  958SOL    HW2 2694   1.454   2.263   3.544
  959SOL     OW 2695   0.974   2.749   3.439
  959SOL    HW1 2696   1.008   2.660   3.410
  959SOL    HW2 2697   0.922   2.790   3.364
  960SOL     OW 2698   0.967   2.265   3.068
  960SOL    HW1 2699   0.889   2.302   3.117
  960SOL    HW2 2700   0.941   2.180   3.022
  961SOL     OW 2701   1.041   2.539   2.270
  961SOL    HW1 2702   1.048   2.576   2.362
  961SOL    HW2 2703   0.954   2.491   2.260
  962SOL     OW 2704   0.116   2.690   2.627
  962SOL    HW1 2705   0.204   2.680   2.673
  962SOL    HW2 2706   0.046   2.720   2.692
  963SOL     OW 2707   0.126   3.725   3.460
  963SOL    HW1 2708   0.139   3.697   3.556
  963SOL    HW2 2709   0.033   3.701   3.431
  964SOL     OW 2710   0.897   2.280   2.053
  964SOL    HW1 2711   0.949   2.332   1.985
  964SOL    HW2 2712   0.879   2.188   2.017
  965SOL     OW 2713   1.714   2.452   3.691
  965SOL    HW1 2714   1.677   2.534   3.646
  965SOL    HW2 2715   1.742   2.386   3.621
  966SOL     OW 2716   1.364   3.021   2.424
  966SOL    HW1 2717   1.443   2.996   2.368
  966SOL    HW2 2718   1.307   3.086   2.374
  967SOL     OW 2719   0.561   2.075   2.759
  967SOL    HW1 2720   0.564   2.082   2.859
  967SOL    HW2 2721   0.578   2.165   2.719
  968SOL     OW 2722   0.979   3.318   2.364
  968SOL    HW1 2723   0.951   3.378   2.289
  968SOL    HW2 2724   0.970   3.367   2.451
  969SOL     OW 2725   0.366   3.672   2.724
  969SOL    HW1 2726   0.408   3.583   2.742
  969SOL    HW2 2727   0.429   3.745   2.749
  970SOL     OW 2728   1.220   3.417   3.360
  970SOL    HW1 2729   1.201   3.359   3.439
  970SOL    HW2 2730   1.166   3.387   3.282
  971SOL     OW 2731   0.331   2.815   2.127
  971SOL    HW1 2732   0.404   2.836   2.063
  971SOL    HW2 2733   0.294   2.724   2.107
  972SOL     OW 2734   0.470   3.132   3.594
  972SOL    HW1 2735   0.445   3.124   3.497
  972SOL    HW2 2736   0.389   3.157   3.647
  973SOL     OW 2737   1.115   3.627   2.106
  973SOL    HW1 2738   1.036   3.588   2.154
  973SOL    HW2 2739   1.128   3.580   2.019
  974SOL     OW 2740   0.180   2.146   3.369
  974SOL    HW1 2741   0.101   2.183   3.319
  974SOL    HW2 2742   0.153   2.062   3.417
  975SOL     OW 2743   1.626   3.222   1.949
  975SOL    HW1 2744   1.602   3.314   1.919
  975SOL    HW2 2745   1.557   3.158   1.916
  976SOL     OW 2746   0.479   3.583   2.191
  976SOL    HW1 2747   0.523   3.645   2.257
  976SOL    HW2 2748   0.548   3.550   2.126
  977SOL     OW 2749   1.405   1.954   2.299
  977SOL    HW1 2750   1.402   1.912   2.209
  977SOL    HW2 2751   1.499   1.973   2.325
  978SOL     OW 2752   0.266   3.653   3.095
  978SOL    HW1 2753   0.310   3.581   3.149
  978SOL    HW2 2754   0.230   3.613   3.010
  979SOL     OW 2755   0.950   3.574   2.755
  979SOL    HW1 2756   1.035   3.525   2.772
  979SOL    HW2 2757   0.899   3.528   2.681
  980SOL     OW 2758   0.403   2.540   2.317
  980SOL    HW1 2759   0.439   2.450   2.343
  980SOL    HW2 2760   0.309   2.548   2.349
  981SOL     OW 2761   1.540   2.124   3.608
  981SOL    HW1 2762   1.536   2.130   3.707
  981SOL    HW2 2763   1.499   2.038   3.578
  982SOL     OW 2764   0.612   1.982   1.943
  982SOL    HW1 2765   0.687   1.923   1.974
  982SOL    HW2 2766   0.560   1.935   1.872
  983SOL     OW 2767   0.771   2.131   3.609
  983SOL    HW1 2768   0.852   2.072   3.616
  983SOL    HW2 2769   0.706   2.107   3.681
  984SOL     OW 2770   0.891   3.413   3.063
  984SOL    HW1 2771   0.878   3.381   2.970
  984SOL    HW2 2772   0.950   3.349   3.113
  985SOL     OW 2773   1.338   2.451   3.280
  985SOL    HW1 2774   1.366   2.411   3.367
  985SOL    HW2 2775   1.385   2.538   3.266
  986SOL     OW 2776   0.829   3.278   2.791
  986SOL    HW1 2777   0.915   3.268   2.740
  986SOL    HW2 2778   0.754   3.287   2.726
  987SOL     OW 2779   0.936   2.393   2.764
  987SOL    HW1 2780   0.905   2.377   2.670
  987SOL    HW2 2781   0.963   2.306   2.805
  988SOL     OW 2782   0.550   1.900   2.374
  988SOL    HW1 2783   0.463   1.898   2.424
  988SOL    HW2 2784   0.552   1.979   2.313
  989SOL     OW 2785   1.437   3.039   1.891
  989SOL    HW1 2786   1.470   2.959   1.940
  989SOL    HW2 2787   1.350   3.069   1.931
  990SOL     OW 2788   0.293   1.883   2.065
  990SOL    HW1 2789   0.326   1.970   2.027
  990SOL    HW2 2790   0.370   1.831   2.102
  991SOL     OW 2791   0.935   2.119   2.361
  991SOL    HW1 2792   0.909   2.175   2.282
  991SOL    HW2 2793   1.035   2.124   2.373
  992SOL     OW 2794   1.086   2.529   3.338
  992SOL    HW1 2795   1.026   2.449   3.338
  992SOL    HW2 2796   1.180   2.500   3.323
  993SOL     OW 2797   1.244   3.443   2.646
  993SOL    HW1 2798   1.226   3.501   2.566
  993SOL    HW2 2799   1.292   3.497   2.715
  994SOL     OW 2800   0.487   3.008   2.602
  994SOL    HW1 2801   0.420   2.975   2.668
  994SOL    HW2 2802   0.453   2.990   2.509
  995SOL     OW 2803   1.255   3.670   2.473
  995SOL    HW1 2804   1.309   3.723   2.408
  995SOL    HW2 2805   1.211   3.731   2.538
  996SOL     OW 2806   1.056   2.409   1.878
  996SOL    HW1 2807   1.012   2.494   1.849
  996SOL    HW2 2808   1.135   2.431   1.936
  997SOL     OW 2809   0.089   2.419   3.234
  997SOL    HW1 2810   0.184   2.415   3.203
  997SOL    HW2 2811   0.068   2.511   3.266
  998SOL     OW 2812   0.570   2.081   3.030
  998SOL    HW1 2813   0.631   2.010   3.066
  998SOL    HW2 2814   0.477   2.065   3.064
  999SOL     OW 2815   0.863   2.347   2.512
  999SOL    HW1 2816   0.813   2.400   2.444
  999SOL    HW2 2817   0.874   2.253   2.480
 1000SOL     OW 2818   1.037   1.903   2.631
 1000SOL    HW1 2819   0.973   1.911   2.554
 1000SOL    HW2 2820   1.010   1.826   2.688
 1001SOL     OW 2821   0.480   3.267   2.027
 1001SOL    HW1 2822   0.393   3.262   2.076
 1001SOL    HW2 2823   0.471   3.222   1.938
 1002SOL     OW 2824   1.669   3.169   2.501
 1002SOL    HW1 2825   1.758   3.206   2.528
 1002SOL    HW2 2826   1.598   3.239   2.513
 1003SOL     OW 2827   1.401   2.463   1.908
 1003SOL    HW1 2828   1.354   2.419   1.984
 1003SOL    HW2 2829   1.500   2.454   1.921
 1004SOL     OW 2830   0.549   2.090   2.177
 1004SOL    HW1 2831   0.577   2.047   2.091
 1004SOL    HW2 2832   0.520   2.184   2.160
 1005SOL     OW 2833   1.734   3.094   3.437
 1005SOL    HW1 2834   1.824   3.052   3.436
 1005SOL    HW2 2835   1.743   3.193   3.448
 1006SOL     OW 2836   1.067   3.226   3.208
 1006SOL    HW1 2837   0.981   3.205   3.253
 1006SOL    HW2 2838   1.140   3.169   3.247
 1007SOL     OW 2839   1.613   3.462   3.496
 1007SOL    HW1 2840   1.615   3.510   3.408
 1007SOL    HW2 2841   1.696   3.408   3.506
 1008SOL     OW 2842   1.080   3.111   2.943
 1008SOL    HW1 2843   1.024   3.129   3.024
 1008SOL    HW2 2844   1.048   3.167   2.866
 1009SOL     OW 2845   1.582   2.985   2.945
 1009SOL    HW1 2846   1.606   3.048   3.019
 1009SOL    HW2 2847   1.665   2.957   2.896
 1010SOL     OW 2848   0.930   1.972   3.252
 1010SOL    HW1 2849   0.963   1.936   3.165
 1010SOL    HW2 2850   1.008   2.007   3.305
 1011SOL     OW 2851   1.003   2.982   3.586
 1011SOL    HW1 2852   0.910   3.006   3.613
 1011SOL    HW2 2853   1.001   2.899   3.529
 1012SOL     OW 2854   0.715   2.905   2.208
 1012SOL    HW1 2855   0.691   2.878   2.301
 1012SOL    HW2 2856   0.800   2.860   2.181
 1013SOL     OW 2857   0.440   2.676   3.106
 1013SOL    HW1 2858   0.511   2.678   3.176
 1013SOL    HW2 2859   0.393   2.588   3.109
 1014SOL     OW 2860   1.254   2.237   3.141
 1014SOL    HW1 2861   1.288   2.320   3.185
 1014SOL    HW2 2862   1.167   2.257   3.095
 1015SOL     OW 2863   0.052   3.455   3.170
 1015SOL    HW1 2864   5.082   3.482   3.247
 1015SOL    HW2 2865   0.147   3.446   3.200
 1016SOL     OW 2866   0.384   2.981   2.353
 1016SOL    HW1 2867   0.366   3.064   2.300
 1016SOL    HW2 2868   0.360   2.901   2.297
 1017SOL     OW 2869   0.553   2.407   2.716
 1017SOL    HW1 2870   0.576   2.466   2.639
 1017SOL    HW2 2871   0.614   2.427   2.793
 1018SOL     OW 2872   1.223   3.206   2.256
 1018SOL    HW1 2873   1.272   3.288   2.284
 1018SOL    HW2 2874   1.129   3.210   2.290
 1019SOL     OW 2875   1.295   3.329   3.036
 1019SOL    HW1 2876   1.364   3.329   3.109
 1019SOL    HW2 2877   1.215   3.278   3.066
 1020SOL     OW 2878   1.593   2.482   2.332
 1020SOL    HW1 2879   1.572   2.566   2.382
 1020SOL    HW2 2880   1.657   2.503   2.258
 1021SOL     OW 2881   0.346   3.384   3.188
 1021SOL    HW1 2882   0.322   3.342   3.101
 1021SOL    HW2 2883   0.446   3.390   3.195
 1022SOL     OW 2884   0.437   2.577   3.477
 1022SOL    HW1 2885   0.487   2.627   3.406
 1022SOL    HW2 2886   0.476   2.485   3.487
 1023SOL     OW 2887   1.624   2.649   3.547
 1023SOL    HW1 2888   1.529   2.680   3.556
 1023SOL    HW2 2889   1.668   2.698   3.473
 1024SOL     OW 2890   0.992   1.982   3.624
 1024SOL    HW1 2891   1.051   2.061   3.608
 1024SOL    HW2 2892   1.036   1.899   3.590
 1025SOL     OW 2893   0.477   1.881   3.597
 1025SOL    HW1 2894   0.437   1.822   3.527
 1025SOL    HW2 2895   0.413   1.955   3.619
 1026SOL     OW 2896   0.613   2.756   2.907
 1026SOL    HW1 2897   0.630   2.854   2.903
 1026SOL    HW2 2898   0.553   2.737   2.985
 1027SOL     OW 2899   1.226   2.375   2.111
 1027SOL    HW1 2900   1.236   2.290   2.164
 1027SOL    HW2 2901   1.163   2.436   2.158
 1028SOL     OW 2902   0.295   2.047   3.120
 1028SOL    HW1 2903   0.260   2.072   3.210
 1028SOL    HW2 2904   0.285   1.949   3.107
 1029SOL     OW 2905   0.105   3.193   3.130
 1029SOL    HW1 2906   0.050   3.149   3.202
 1029SOL    HW2 2907   0.084   3.291   3.128
 1030SOL     OW 2908   0.740   2.506   2.916
 1030SOL    HW1 2909   0.816   2.469   2.862
 1030SOL    HW2 2910   0.720   2.599   2.886
 1031SOL     OW 2911   1.759   2.822   3.719
 1031SOL    HW1 2912   1.718   2.751   3.661
 1031SOL    HW2 2913   1.694   2.847   3.791
 1032SOL     OW 2914   0.295   1.906   2.483
 1032SOL    HW1 2915   0.279   2.002   2.505
 1032SOL    HW2 2916   0.318   1.856   2.567
 1033SOL     OW 2917   1.615   2.245   2.216
 1033SOL    HW1 2918   1.633   2.164   2.272
 1033SOL    HW2 2919   1.590   2.322   2.274
 1034SOL     OW 2920   1.060   2.617   2.835
 1034SOL    HW1 2921   1.054   2.618   2.935
 1034SOL    HW2 2922   1.026   2.530   2.800
 1035SOL     OW 2923   0.961   3.435   3.553
 1035SOL    HW1 2924   0.948   3.481   3.465
 1035SOL    HW2 2925   0.999   3.343   3.537
 1036SOL     OW 2926   1.850   3.353   3.456
 1036SOL    HW1 2927   1.868   3.367   3.358
 1036SOL    HW2 2928   1.933   3.376   3.508
 1037SOL     OW 2929   0.375   2.765   3.656
 1037SOL    HW1 2930   0.452   2.792   3.715
 1037SOL    HW2 2931   0.403   2.688   3.599
 1038SOL     OW 2932   1.516   2.125   1.991
 1038SOL    HW1 2933   1.454   2.051   2.016
 1038SOL    HW2 2934   1.555   2.165   2.073
 1039SOL     OW 2935   1.299   2.704   1.886
 1039SOL    HW1 2936   1.334   2.611   1.898
 1039SOL    HW2 2937   1.312   2.732   1.791
 1040SOL     OW 2938   1.074   3.238   2.700
 1040SOL    HW1 2939   1.080   3.154   2.647
 1040SOL    HW2 2940   1.143   3.303   2.668
 1041SOL     OW 2941   0.313   2.680   2.820
 1041SOL    HW1 2942   0.412   2.688   2.810
 1041SOL    HW2 2943   0.290   2.594   2.866
 1042SOL     OW 2944   0.315   2.404   2.849
 1042SOL    HW1 2945   0.280   2.311   2.843
 1042SOL    HW2 2946   0.396   2.414   2.791
 1043SOL     OW 2947   1.152   2.226   3.562
 1043SOL    HW1 2948   1.098   2.283   3.625
 1043SOL    HW2 2949   1.244   2.263   3.554
 1044SOL     OW 2950   1.176   2.059   3.348
 1044SOL    HW1 2951   1.174   2.124   3.425
 1044SOL    HW2 2952   1.213   2.106   3.267
 1045SOL     OW 2953   5.075   3.174   2.026
 1045SOL    HW1 2954   5.015   3.200   2.101
 1045SOL    HW2 2955   0.024   3.082   2.042
 1046SOL     OW 2956   0.109   3.651   2.802
 1046SOL    HW1 2957   0.057   3.625   2.721
 1046SOL    HW2 2958   0.206   3.657   2.779
 1047SOL     OW 2959   0.501   3.454   2.781
 1047SOL    HW1 2960   0.576   3.519   2.794
 1047SOL    HW2 2961   0.532   3.378   2.724
 1048SOL     OW 2962   0.994   2.668   3.113
 1048SOL    HW1 2963   1.030   2.618   3.191
 1048SOL    HW2 2964   0.896   2.648   3.102
 1049SOL     OW 2965   0.079   2.479   2.957
 1049SOL    HW1 2966   0.158   2.436   2.913
 1049SOL    HW2 2967   0.068   2.440   3.049
 1050SOL     OW 2968   0.194   2.374   3.592
 1050SOL    HW1 2969   0.246   2.321   3.525
 1050SOL    HW2 2970   0.153   2.453   3.547
 1051SOL     OW 2971   1.386   2.789   3.510
 1051SOL    HW1 2972   1.425   2.880   3.506
 1051SOL    HW2 2973   1.371   2.755   3.417
 1052SOL     OW 2974   0.795   2.437   2.244
 1052SOL    HW1 2975   0.822   2.375   2.169
 1052SOL    HW2 2976   0.720   2.495   2.214
 1053SOL     OW 2977   1.652   2.488   3.110
 1053SOL    HW1 2978   1.595   2.430   3.168
 1053SOL    HW2 2979   1.696   2.432   3.040
 1054SOL     OW 2980   0.249   3.423   3.591
 1054SOL    HW1 2981   0.211   3.498   3.643
 1054SOL    HW2 2982   0.238   3.337   3.642
 1055SOL     OW 2983   0.690   2.346   3.129
 1055SOL    HW1 2984   0.632   2.269   3.104
 1055SOL    HW2 2985   0.694   2.411   3.053
 1056SOL     OW 2986   0.901   3.552   3.320
 1056SOL    HW1 2987   0.884   3.523   3.226
 1056SOL    HW2 2988   0.909   3.651   3.323
 1057SOL     OW 2989   0.482   2.333   2.066
 1057SOL    HW1 2990   0.534   2.419   2.066
 1057SOL    HW2 2991   0.387   2.352   2.088
 1058SOL     OW 2992   0.152   2.988   3.353
 1058SOL    HW1 2993   0.157   2.934   3.437
 1058SOL    HW2 2994   0.167   2.929   3.274
 1059SOL     OW 2995   1.327   2.705   2.163
 1059SOL    HW1 2996   1.245   2.672   2.210
 1059SOL    HW2 2997   1.306   2.718   2.066
 1060SOL     OW 2998   1.744   3.602   2.991
 1060SOL    HW1 2999   1.820   3.639   2.937
 1060SOL    HW2 3000   1.738   3.503   2.977
 1061SOL     OW 3001   1.254   3.589   2.948
 1061SOL    HW1 3002   1.346   3.614   2.917
 1061SOL    HW2 3003   1.255   3.497   2.987
 1062SOL     OW 3004   0.086   3.090   2.890
 1062SOL    HW1 3005   0.098   3.123   2.984
 1062SOL    HW2 3006   5.077   3.098   2.864
 1063SOL     OW 3007   0.689   3.514   3.602
 1063SOL    HW1 3008   0.643   3.590   3.557
 1063SOL    HW2 3009   0.785   3.513   3.576
 1064SOL     OW 3010   1.678   2.007   2.340
 1064SOL    HW1 3011   1.754   2.004   2.276
 1064SOL    HW2 3012   1.682   1.929   2.402
 1065SOL     OW 3013   1.367   3.453   2.343
 1065SOL    HW1 3014   1.425   3.472   2.264
 1065SOL    HW2 3015   1.317   3.537   2.368
 1066SOL     OW 3016   0.129   3.631   3.739
 1066SOL    HW1 3017   0.085   3.556   3.788
 1066SOL    HW2 3018   0.199   3.673   3.798
 1067SOL     OW 3019   0.810   3.148   3.298
 1067SOL    HW1 3020   0.774   3.199   3.376
 1067SOL    HW2 3021   0.742   3.144   3.225
 1068SOL     OW 3022   0.661   3.473   2.025
 1068SOL    HW1 3023   0.682   3.490   1.929
 1068SOL    HW2 3024   0.602   3.392   2.032
 1069SOL     OW 3025   1.621   3.575   3.245
 1069SOL    HW1 3026   1.667   3.587   3.157
 1069SOL    HW2 3027   1.607   3.665   3.287
 1070SOL     OW 3028   1.777   1.988   2.829
 1070SOL    HW1 3029   1.859   1.958   2.780
 1070SOL    HW2 3030   1.718   2.040   2.767
 1071SOL     OW 3031   0.257   2.158   2.587
 1071SOL    HW1 3032   0.239   2.252   2.560
 1071SOL    HW2 3033   0.242   2.148   2.686
 1072SOL     OW 3034   1.166   3.488   1.889
 1072SOL    HW1 3035   1.183   3.391   1.909
 1072SOL    HW2 3036   1.110   3.495   1.807
 1073SOL     OW 3037   0.832   2.884   3.262
 1073SOL    HW1 3038   0.849   2.883   3.164
 1073SOL    HW2 3039   0.829   2.978   3.295
 1074SOL     OW 3040   0.935   2.770   2.146
 1074SOL    HW1 3041   1.001   2.808   2.080
 1074SOL    HW2 3042   0.971   2.684   2.182
 1075SOL     OW 3043   1.571   3.486   1.889
 1075SOL    HW1 3044   1.473   3.506   1.891
 1075SOL    HW2 3045   1.602   3.485   1.794
 1076SOL     OW 3046   0.380   3.125   3.338
 1076SOL    HW1 3047   0.363   3.213   3.292
 1076SOL    HW2 3048   0.295   3.072   3.338
 1077SOL     OW 3049   1.596   3.173   3.134
 1077SOL    HW1 3050   1.684   3.161   3.181
 1077SOL    HW2 3051   1.541   3.241   3.181
 1078SOL     OW 3052   1.064   2.994   2.586
 1078SOL    HW1 3053   0.994   2.934   2.623
 1078SOL    HW2 3054   1.085   2.967   2.491
 1079SOL     OW 3055   1.027   2.078   2.842
 1079SOL    HW1 3056   1.020   2.029   2.755
 1079SOL    HW2 3057   1.034   2.012   2.917
 1080SOL     OW 3058   0.593   3.340   2.357
 1080SOL    HW1 3059   0.644   3.299   2.281
 1080SOL    HW2 3060   0.535   3.414   2.321
 1081SOL     OW 3061   1.723   2.224   3.243
 1081SOL    HW1 3062   1.776   2.309   3.243
 1081SOL    HW2 3063   1.766   2.158   3.182
 1082SOL     OW 3064   0.231   3.237   2.139
 1082SOL    HW1 3065   0.137   3.211   2.117
 1082SOL    HW2 3066   0.238   3.257   2.237
 1083SOL     OW 3067   0.146   2.892   3.606
 1083SOL    HW1 3068   0.069   2.853   3.656
 1083SOL    HW2 3069   0.231   2.849   3.635
 1084SOL     OW 3070   0.695   2.056   3.356
 1084SOL    HW1 3071   0.779   2.027   3.311
 1084SOL    HW2 3072   0.717   2.092   3.447
 1085SOL     OW 3073   0.079   2.197   1.904
 1085SOL    HW1 3074   5.085   2.148   1.871
 1085SOL    HW2 3075   0.110   2.262   1.835
 1086SOL     OW 3076   1.442   2.707   3.231
 1086SOL    HW1 3077   1.406   2.673   3.144
 1086SOL    HW2 3078   1.534   2.744   3.217
 1087SOL     OW 3079   0.060   2.057   2.175
 1087SOL    HW1 3080   0.040   2.103   2.088
 1087SOL    HW2 3081   0.106   1.971   2.157
 1088SOL     OW 3082   1.191   3.225   1.968
 1088SOL    HW1 3083   1.100   3.184   1.963
 1088SOL    HW2 3084   1.223   3.226   2.062
 1089SOL     OW 3085   0.632   2.679   3.292
 1089SOL    HW1 3086   0.672   2.769   3.313
 1089SOL    HW2 3087   0.700   2.608   3.307
 1090SOL     OW 3088   1.523   3.643   2.813
 1090SOL    HW1 3089   1.547   3.721   2.755
 1090SOL    HW2 3090   1.601   3.619   2.870
 1091SOL     OW 3091   0.722   2.405   3.570
 1091SOL    HW1 3092   0.773   2.475   3.621
 1091SOL    HW2 3093   0.745   2.315   3.606
 1092SOL     OW 3094   1.473   3.048   3.497
 1092SOL    HW1 3095   1.460   3.049   3.596
 1092SOL    HW2 3096   1.569   3.067   3.476
 1093SOL     OW 3097   0.372   3.594   3.421
 1093SOL    HW1 3098   0.292   3.651   3.406
 1093SOL    HW2 3099   0.346   3.510   3.469
 1094SOL     OW 3100   1.710   2.748   3.106
 1094SOL    HW1 3101   1.698   2.649   3.118
 1094SOL    HW2 3102   1.681   2.774   3.014
 1095SOL     OW 3103   1.222   2.184   2.333
 1095SOL    HW1 3104   1.284   2.108   2.315
 1095SOL    HW2 3105   1.262   2.244   2.403
 1096SOL     OW 3106   0.615   2.590   2.514
 1096SOL    HW1 3107   0.647   2.684   2.518
 1096SOL    HW2 3108   0.541   2.582   2.446
 1097SOL     OW 3109   1.760   2.234   3.514
 1097SOL    HW1 3110   1.741   2.237   3.416
 1097SOL    HW2 3111   1.682   2.193   3.562
 1098SOL     OW 3112   1.713   2.826   3.370
 1098SOL    HW1 3113   1.718   2.925   3.387
 1098SOL    HW2 3114   1.741   2.807   3.276
 1099SOL     OW 3115   0.856   3.228   1.909
 1099SOL    HW1 3116   0.823   3.247   2.002
 1099SOL    HW2 3117   0.878   3.314   1.863
 1100SOL     OW 3118   0.667   3.681   2.775
 1100SOL    HW1 3119   0.651   3.776   2.750
 1100SOL    HW2 3120   0.765   3.663   2.776
 1101SOL     OW 3121   0.903   2.817   2.715
 1101SOL    HW1 3122   0.956   2.741   2.753
 1101SOL    HW2 3123   0.869   2.874   2.790
 1102SOL     OW 3124   1.099   2.856   1.951
 1102SOL    HW1 3125   1.061   2.903   1.872
 1102SOL    HW2 3126   1.176   2.799   1.923
 1103SOL     OW 3127   1.819   3.409   2.691
 1103SOL    HW1 3128   1.735   3.436   2.644
 1103SOL    HW2 3129   1.796   3.369   2.780
 1104SOL     OW 3130   0.235   3.187   3.720
 1104SOL    HW1 3131   0.189   3.117   3.666
 1104SOL    HW2 3132   0.202   3.185   3.814
 1105SOL     OW 3133   0.065   3.090   2.502
 1105SOL    HW1 3134   0.035   3.035   2.579
 1105SOL    HW2 3135   0.162   3.113   2.512
 1106SOL     OW 3136   0.673   3.270   3.490
 1106SOL    HW1 3137   0.596   3.213   3.518
 1106SOL    HW2 3138   0.663   3.361   3.531
 1107SOL     OW 3139   1.822   2.027   3.089
 1107SOL    HW1 3140   1.840   1.934   3.122
 1107SOL    HW2 3141   1.805   2.025   2.991
 1108SOL     OW 3142   0.474   2.299   2.417
 1108SOL    HW1 3143   0.478   2.234   2.342
 1108SOL    HW2 3144   0.451   2.251   2.502
 1109SOL     OW 3145   1.724   3.337   2.937
 1109SOL    HW1 3146   1.634   3.304   2.909
 1109SOL    HW2 3147   1.761   3.277   3.008
 1110SOL     OW 3148   0.340   2.426   3.122
 1110SOL    HW1 3149   0.395   2.370   3.185
 1110SOL    HW2 3150   0.348   2.390   3.029
 1111SOL     OW 3151   0.821   3.482   2.535
 1111SOL    HW1 3152   0.812   3.555   2.468
 1111SOL    HW2 3153   0.737   3.428   2.536
 1112SOL     OW 3154   1.425   2.119   2.973
 1112SOL    HW1 3155   1.473   2.037   3.005
 1112SOL    HW2 3156   1.365   2.153   3.045
 1113SOL     OW 3157   1.029   1.862   3.024
 1113SOL    HW1 3158   0.961   1.798   2.988
 1113SOL    HW2 3159   1.120   1.821   3.016
 1114SOL     OW 3160   0.774   3.225   2.187
 1114SOL    HW1 3161   0.747   3.130   2.171
 1114SOL    HW2 3162   0.841   3.228   2.261
 1115SOL     OW 3163   0.615   3.423   3.145
 1115SOL    HW1 3164   0.597   3.511   3.190
 1115SOL    HW2 3165   0.712   3.415   3.124
 1116SOL     OW 3166   1.350   1.886   2.037
 1116SOL    HW1 3167   1.372   1.833   1.954
 1116SOL    HW2 3168   1.259   1.860   2.069
 1117SOL     OW 3169   1.292   2.351   2.574
 1117SOL    HW1 3170   1.200   2.389   2.561
 1117SOL    HW2 3171   1.295   2.301   2.661
 1118SOL     OW 3172   1.546   2.094   2.720
 1118SOL    HW1 3173   1.487   2.086   2.800
 1118SOL    HW2 3174   1.500   2.147   2.649
 1119SOL     OW 3175   0.083   2.944   2.127
 1119SOL    HW1 3176   0.176   2.908   2.136
 1119SOL    HW2 3177   0.017   2.871   2.148
 1120SOL     OW 3178   0.887   3.519   2.198
 1120SOL    HW1 3179   0.812   3.486   2.142
 1120SOL    HW2 3180   0.857   3.600   2.249
 1121SOL     OW 3181   0.213   2.502   3.864
 1121SOL    HW1 3182   0.161   2.438   3.921
 1121SOL    HW2 3183   0.232   2.460   3.775
 1122SOL     OW 3184   0.242   2.121   4.713
 1122SOL    HW1 3185   0.270   2.106   4.807
 1122SOL    HW2 3186   0.175   2.050   4.687
 1123SOL     OW 3187   0.002   2.261   4.367
 1123SOL    HW1 3188   5.046   2.272   4.457
 1123SOL    HW2 3189   0.048   2.172   4.364
 1124SOL     OW 3190   0.542   3.064   4.872
 1124SOL    HW1 3191   0.450   3.089   4.843
 1124SOL    HW2 3192   0.582   3.139   4.925
 1125SOL     OW 3193   1.548   3.388   4.450
 1125SOL    HW1 3194   1.517   3.361   4.541
 1125SOL    HW2 3195   1.471   3.387   4.386
 1126SOL     OW 3196   1.109   2.560   4.432
 1126SOL    HW1 3197   1.157   2.644   4.407
 1126SOL    HW2 3198   1.071   2.569   4.524
 1127SOL     OW 3199   1.774   2.459   3.947
 1127SOL    HW1 3200   1.751   2.457   3.850
 1127SOL    HW2 3201   1.723   2.386   3.994
 1128SOL     OW 3202   0.761   2.996   4.730
 1128SOL    HW1 3203   0.680   3.017   4.784
 1128SOL    HW2 3204   0.799   3.080   4.692
 1129SOL     OW 3205   0.701   2.864   4.365
 1129SOL    HW1 3206   0.775   2.851   4.432
 1129SOL    HW2 3207   0.619   2.896   4.412
 1130SOL     OW 3208   0.293   3.327   4.812
 1130SOL    HW1 3209   0.238   3.259   4.763
 1130SOL    HW2 3210   0.359   3.368   4.750
 1131SOL     OW 3211   1.615   2.324   4.454
 1131SOL    HW1 3212   1.560   2.365   4.381
 1131SOL    HW2 3213   1.592   2.367   4.541
 1132SOL     OW 3214   0.252   3.551   4.225
 1132SOL    HW1 3215   0.251   3.634   4.280
 1132SOL    HW2 3216   0.315   3.562   4.148
 1133SOL     OW 3217   0.228   3.287   4.266
 1133SOL    HW1 3218   0.236   3.386   4.256
 1133SOL    HW2 3219   0.132   3.263   4.281
 1134SOL     OW 3220   0.243   2.945   4.631
 1134SOL    HW1 3221   0.243   2.856   4.676
 1134SOL    HW2 3222   0.190   3.010   4.686
 1135SOL     OW 3223   0.641   3.699   0.038
 1135SOL    HW1 3224   0.545   3.723   0.052
 1135SOL    HW2 3225   0.699   3.756   0.097
 1136SOL     OW 3226   0.570   2.854   3.849
 1136SOL    HW1 3227   0.615   2.905   3.776
 1136SOL    HW2 3228   0.613   2.877   3.937
 1137SOL     OW 3229   0.139   2.486   4.297
 1137SOL    HW1 3230   0.080   2.408   4.315
 1137SOL    HW2 3231   0.109   2.563   4.354
 1138SOL     OW 3232   1.876   3.615   4.088
 1138SOL    HW1 3233   1.942   3.589   4.159
 1138SOL    HW2 3234   1.891   3.711   4.063
 1139SOL     OW 3235   0.007   3.443   3.885
 1139SOL    HW1 3236   0.001   3.343   3.895
 1139SOL    HW2 3237   5.021   3.485   3.940
 1140SOL     OW 3238   1.683   2.758   4.368
 1140SOL    HW1 3239   1.779   2.734   4.380
 1140SOL    HW2 3240   1.670   2.803   4.280
 1141SOL     OW 3241   1.648   2.992   4.157
 1141SOL    HW1 3242   1.741   2.977   4.125
 1141SOL    HW2 3243   1.649   3.056   4.234
 1142SOL     OW 3244   0.628   3.284   4.462
 1142SOL    HW1 3245   0.571   3.213   4.502
 1142SOL    HW2 3246   0.614   3.286   4.363
 1143SOL     OW 3247   0.824   1.853   4.239
 1143SOL    HW1 3248   0.861   1.944   4.221
 1143SOL    HW2 3249   0.724   1.859   4.245
 1144SOL     OW 3250   0.210   2.848   4.938
 1144SOL    HW1 3251   0.304   2.816   4.936
 1144SOL    HW2 3252   0.158   2.795   5.005
 1145SOL     OW 3253   1.551   2.842   3.921
 1145SOL    HW1 3254   1.473   2.783   3.942
 1145SOL    HW2 3255   1.585   2.883   4.005
 1146SOL     OW 3256   1.463   3.276   4.690
 1146SOL    HW1 3257   1.393   3.297   4.758
 1146SOL    HW2 3258   1.442   3.187   4.648
 1147SOL     OW 3259   1.650   3.596   4.315
 1147SOL    HW1 3260   1.644   3.557   4.223
 1147SOL    HW2 3261   1.631   3.525   4.383
 1148SOL     OW 3262   0.584   2.586   3.999
 1148SOL    HW1 3263   0.592   2.670   3.946
 1148SOL    HW2 3264   0.520   2.600   4.074
 1149SOL     OW 3265   1.272   2.180   4.634
 1149SOL    HW1 3266   1.178   2.152   4.651
 1149SOL    HW2 3267   1.331   2.149   4.708
 1150SOL     OW 3268   1.578   3.509   4.021
 1150SOL    HW1 3269   1.676   3.523   4.034
 1150SOL    HW2 3270   1.557   3.511   3.923
 1151SOL     OW 3271   1.013   2.192   4.967
 1151SOL    HW1 3272   0.994   2.269   5.028
 1151SOL    HW2 3273   0.944   2.189   4.895
 1152SOL     OW 3274   1.024   2.539   4.145
 1152SOL    HW1 3275   1.041   2.565   4.240
 1152SOL    HW2 3276   0.937   2.490   4.139
 1153SOL     OW 3277   0.102   2.694   4.491
 1153SOL    HW1 3278   0.195   2.673   4.523
 1153SOL    HW2 3279   0.050   2.735   4.566
 1154SOL     OW 3280   0.062   3.673   0.234
 1154SOL    HW1 3281   5.058   3.652   0.270
 1154SOL    HW2 3282   0.052   3.724   0.148
 1155SOL     OW 3283   0.887   2.253   3.925
 1155SOL    HW1 3284   0.931   2.318   3.863
 1155SOL    HW2 3285   0.892   2.161   3.886
 1156SOL     OW 3286   1.364   3.025   4.285
 1156SOL    HW1 3287   1.444   3.003   4.229
 1156SOL    HW2 3288   1.303   3.086   4.234
 1157SOL     OW 3289   0.549   2.079   4.622
 1157SOL    HW1 3290   0.551   2.087   4.722
 1157SOL    HW2 3291   0.566   2.168   4.581
 1158SOL     OW 3292   0.959   3.304   4.197
 1158SOL    HW1 3293   0.917   3.371   4.136
 1158SOL    HW2 3294   0.998   3.350   4.276
 1159SOL     OW 3295   0.358   3.669   4.604
 1159SOL    HW1 3296   0.390   3.575   4.614
 1159SOL    HW2 3297   0.426   3.732   4.640
 1160SOL     OW 3298   1.785   2.921   4.573
 1160SOL    HW1 3299   1.730   2.905   4.491
 1160SOL    HW2 3300   1.726   2.917   4.654
 1161SOL     OW 3301   0.318   2.779   3.964
 1161SOL    HW1 3302   0.400   2.801   3.912
 1161SOL    HW2 3303   0.287   2.687   3.942
 1162SOL     OW 3304   1.474   2.602   4.430
 1162SOL    HW1 3305   1.474   2.556   4.519
 1162SOL    HW2 3306   1.557   2.657   4.421
 1163SOL     OW 3307   1.107   3.619   3.951
 1163SOL    HW1 3308   1.029   3.579   3.999
 1163SOL    HW2 3309   1.126   3.567   3.868
 1164SOL     OW 3310   1.621   3.231   3.807
 1164SOL    HW1 3311   1.580   3.322   3.798
 1164SOL    HW2 3312   1.556   3.161   3.778
 1165SOL     OW 3313   0.478   3.584   4.058
 1165SOL    HW1 3314   0.518   3.649   4.123
 1165SOL    HW2 3315   0.549   3.555   3.993
 1166SOL     OW 3316   1.404   1.955   4.152
 1166SOL    HW1 3317   1.401   1.910   4.062
 1166SOL    HW2 3318   1.498   1.981   4.173
 1167SOL     OW 3319   0.272   3.648   4.939
 1167SOL    HW1 3320   0.331   3.583   4.985
 1167SOL    HW2 3321   0.226   3.604   4.862
 1168SOL     OW 3322   0.947   3.561   4.649
 1168SOL    HW1 3323   1.018   3.493   4.669
 1168SOL    HW2 3324   0.894   3.530   4.570
 1169SOL     OW 3325   0.407   2.565   4.214
 1169SOL    HW1 3326   0.437   2.471   4.228
 1169SOL    HW2 3327   0.307   2.570   4.225
 1170SOL     OW 3328   0.613   1.991   3.793
 1170SOL    HW1 3329   0.687   1.933   3.828
 1170SOL    HW2 3330   0.559   1.939   3.726
 1171SOL     OW 3331   0.830   3.241   4.646
 1171SOL    HW1 3332   0.925   3.243   4.613
 1171SOL    HW2 3333   0.769   3.270   4.572
 1172SOL     OW 3334   0.911   2.380   4.614
 1172SOL    HW1 3335   0.873   2.375   4.522
 1172SOL    HW2 3336   0.951   2.291   4.638
 1173SOL     OW 3337   0.555   1.901   4.234
 1173SOL    HW1 3338   0.473   1.903   4.291
 1173SOL    HW2 3339   0.554   1.977   4.170
 1174SOL     OW 3340   1.445   3.035   3.758
 1174SOL    HW1 3341   1.482   2.963   3.817
 1174SOL    HW2 3342   1.352   3.059   3.789
 1175SOL     OW 3343   0.286   1.885   3.929
 1175SOL    HW1 3344   0.319   1.970   3.889
 1175SOL    HW2 3345   0.364   1.833   3.965
 1176SOL     OW 3346   0.938   2.110   4.207
 1176SOL    HW1 3347   0.915   2.170   4.130
 1176SOL    HW2 3348   1.034   2.122   4.230
 1177SOL     OW 3349   1.222   3.437   4.519
 1177SOL    HW1 3350   1.227   3.506   4.446
 1177SOL    HW2 3351   1.301   3.445   4.578
 1178SOL     OW 3352   0.458   2.950   4.462
 1178SOL    HW1 3353   0.383   2.935   4.527
 1178SOL    HW2 3354   0.424   2.945   4.369
 1179SOL     OW 3355   1.260   3.663   4.327
 1179SOL    HW1 3356   1.311   3.724   4.266
 1179SOL    HW2 3357   1.194   3.716   4.380
 1180SOL     OW 3358   1.053   2.410   3.750
 1180SOL    HW1 3359   1.006   2.497   3.732
 1180SOL    HW2 3360   1.131   2.427   3.811
 1181SOL     OW 3361   0.571   2.060   4.896
 1181SOL    HW1 3362   0.603   1.971   4.926
 1181SOL    HW2 3363   0.478   2.075   4.929
 1182SOL     OW 3364   0.821   2.315   4.352
 1182SOL    HW1 3365   0.795   2.373   4.274
 1182SOL    HW2 3366   0.854   2.227   4.319
 1183SOL     OW 3367   1.054   1.897   4.495
 1183SOL    HW1 3368   0.988   1.915   4.423
 1183SOL    HW2 3369   1.024   1.818   4.549
 1184SOL     OW 3370   1.421   3.034   4.582
 1184SOL    HW1 3371   1.384   2.945   4.609
 1184SOL    HW2 3372   1.415   3.043   4.482
 1185SOL     OW 3373   1.512   2.425   4.686
 1185SOL    HW1 3374   1.437   2.359   4.695
 1185SOL    HW2 3375   1.561   2.432   4.774
 1186SOL     OW 3376   1.843   2.676   4.096
 1186SOL    HW1 3377   1.894   2.639   4.174
 1186SOL    HW2 3378   1.829   2.604   4.029
 1187SOL     OW 3379   0.485   3.267   3.890
 1187SOL    HW1 3380   0.397   3.264   3.938
 1187SOL    HW2 3381   0.474   3.228   3.798
 1188SOL     OW 3382   1.682   3.149   4.378
 1188SOL    HW1 3383   1.782   3.147   4.379
 1188SOL    HW2 3384   1.650   3.242   4.396
 1189SOL     OW 3385   1.403   2.459   3.780
 1189SOL    HW1 3386   1.355   2.430   3.864
 1189SOL    HW2 3387   1.500   2.436   3.788
 1190SOL     OW 3388   0.539   2.081   4.029
 1190SOL    HW1 3389   0.569   2.040   3.944
 1190SOL    HW2 3390   0.510   2.176   4.013
 1191SOL     OW 3391   1.125   3.096   4.836
 1191SOL    HW1 3392   1.035   3.100   4.880
 1191SOL    HW2 3393   1.119   3.132   4.743
 1192SOL     OW 3394   1.613   2.976   4.804
 1192SOL    HW1 3395   1.584   2.992   4.898
 1192SOL    HW2 3396   1.562   3.037   4.743
 1193SOL     OW 3397   0.720   2.914   4.073
 1193SOL    HW1 3398   0.706   2.901   4.171
 1193SOL    HW2 3399   0.799   2.861   4.044
 1194SOL     OW 3400   0.428   2.701   4.996
 1194SOL    HW1 3401   0.478   2.726   5.078
 1194SOL    HW2 3402   0.384   2.612   5.010
 1195SOL     OW 3403   1.270   2.291   4.955
 1195SOL    HW1 3404   1.290   2.324   5.047
 1195SOL    HW2 3405   1.178   2.253   4.952
 1196SOL     OW 3406   0.360   2.976   4.207
 1196SOL    HW1 3407   0.358   3.053   4.143
 1196SOL    HW2 3408   0.344   2.891   4.157
 1197SOL     OW 3409   0.535   2.428   4.584
 1197SOL    HW1 3410   0.567   2.473   4.501
 1197SOL    HW2 3411   0.598   2.449   4.659
 1198SOL     OW 3412   1.208   3.198   4.125
 1198SOL    HW1 3413   1.255   3.283   4.151
 1198SOL    HW2 3414   1.110   3.209   4.138
 1199SOL     OW 3415   1.279   3.316   4.887
 1199SOL    HW1 3416   1.334   3.318   4.970
 1199SOL    HW2 3417   1.223   3.233   4.885
 1200SOL     OW 3418   1.589   2.477   4.202
 1200SOL    HW1 3419   1.534   2.531   4.265
 1200SOL    HW2 3420   1.624   2.536   4.129
 1201SOL     OW 3421   0.411   3.435   5.023
 1201SOL    HW1 3422   0.365   3.389   4.947
 1201SOL    HW2 3423   0.462   3.368   5.077
 1202SOL     OW 3424   0.575   2.749   4.757
 1202SOL    HW1 3425   0.594   2.847   4.751
 1202SOL    HW2 3426   0.528   2.730   4.843
 1203SOL     OW 3427   1.382   2.686   4.743
 1203SOL    HW1 3428   1.284   2.666   4.735
 1203SOL    HW2 3429   1.434   2.601   4.746
 1204SOL     OW 3430   1.228   2.389   4.010
 1204SOL    HW1 3431   1.245   2.305   4.062
 1204SOL    HW2 3432   1.156   2.442   4.055
 1205SOL     OW 3433   0.299   2.053   4.963
 1205SOL    HW1 3434   0.267   2.083   5.053
 1205SOL    HW2 3435   0.285   1.955   4.954
 1206SOL     OW 3436   0.001   3.190   4.993
 1206SOL    HW1 3437   5.049   3.100   5.015
 1206SOL    HW2 3438   5.075   3.252   5.071
 1207SOL     OW 3439   0.704   2.511   4.780
 1207SOL    HW1 3440   0.785   2.488   4.725
 1207SOL    HW2 3441   0.673   2.603   4.756
 1208SOL     OW 3442   0.297   1.919   4.350
 1208SOL    HW1 3443   0.285   2.016   4.372
 1208SOL    HW2 3444   0.319   1.869   4.434
 1209SOL     OW 3445   1.589   2.239   4.088
 1209SOL    HW1 3446   1.626   2.167   4.146
 1209SOL    HW2 3447   1.585   2.325   4.140
 1210SOL     OW 3448   1.043   2.602   4.702
 1210SOL    HW1 3449   1.023   2.621   4.798
 1210SOL    HW2 3450   1.007   2.512   4.678
 1211SOL     OW 3451   1.518   2.116   3.864
 1211SOL    HW1 3452   1.447   2.049   3.887
 1211SOL    HW2 3453   1.548   2.163   3.947
 1212SOL     OW 3454   1.300   2.705   3.750
 1212SOL    HW1 3455   1.340   2.614   3.762
 1212SOL    HW2 3456   1.324   2.741   3.660
 1213SOL     OW 3457   1.093   3.212   4.589
 1213SOL    HW1 3458   1.097   3.140   4.521
 1213SOL    HW2 3459   1.137   3.294   4.553
 1214SOL     OW 3460   0.306   2.673   4.679
 1214SOL    HW1 3461   0.401   2.703   4.672
 1214SOL    HW2 3462   0.303   2.580   4.716
 1215SOL     OW 3463   0.300   2.396   4.722
 1215SOL    HW1 3464   0.273   2.300   4.720
 1215SOL    HW2 3465   0.380   2.410   4.664
 1216SOL     OW 3466   1.171   2.097   0.119
 1216SOL    HW1 3467   1.159   2.180   0.174
 1216SOL    HW2 3468   1.120   2.107   0.033
 1217SOL     OW 3469   0.002   3.162   3.907
 1217SOL    HW1 3470   5.026   3.187   3.980
 1217SOL    HW2 3471   0.033   3.068   3.920
 1218SOL     OW 3472   0.096   3.645   4.656
 1218SOL    HW1 3473   0.044   3.662   4.572
 1218SOL    HW2 3474   0.194   3.650   4.637
 1219SOL     OW 3475   0.490   3.444   4.652
 1219SOL    HW1 3476   0.560   3.515   4.664
 1219SOL    HW2 3477   0.521   3.377   4.585
 1220SOL     OW 3478   0.964   2.634   4.991
 1220SOL    HW1 3479   1.019   2.707   5.032
 1220SOL    HW2 3480   0.867   2.650   5.011
 1221SOL     OW 3481   0.072   2.445   4.868
 1221SOL    HW1 3482   0.153   2.423   4.814
 1221SOL    HW2 3483   0.098   2.461   4.963
 1222SOL     OW 3484   0.786   2.428   4.102
 1222SOL    HW1 3485   0.808   2.363   4.030
 1222SOL    HW2 3486   0.710   2.486   4.073
 1223SOL     OW 3487   1.644   2.471   4.920
 1223SOL    HW1 3488   1.627   2.411   4.998
 1223SOL    HW2 3489   1.733   2.449   4.880
 1224SOL     OW 3490   0.689   2.297   4.983
 1224SOL    HW1 3491   0.650   2.216   4.939
 1224SOL    HW2 3492   0.681   2.375   4.922
 1225SOL     OW 3493   0.913   3.508   0.013
 1225SOL    HW1 3494   0.856   3.559   5.036
 1225SOL    HW2 3495   0.946   3.569   0.085
 1226SOL     OW 3496   0.480   2.333   3.939
 1226SOL    HW1 3497   0.521   2.424   3.941
 1226SOL    HW2 3498   0.385   2.338   3.970
 1227SOL     OW 3499   1.255   2.858   4.916
 1227SOL    HW1 3500   1.322   2.823   4.850
 1227SOL    HW2 3501   1.219   2.946   4.883
 1228SOL     OW 3502   1.317   2.713   4.020
 1228SOL    HW1 3503   1.236   2.678   4.066
 1228SOL    HW2 3504   1.300   2.717   3.921
 1229SOL     OW 3505   1.744   3.599   4.845
 1229SOL    HW1 3506   1.822   3.617   4.785
 1229SOL    HW2 3507   1.717   3.503   4.837
 1230SOL     OW 3508   1.271   3.580   4.877
 1230SOL    HW1 3509   1.342   3.615   4.816
 1230SOL    HW2 3510   1.277   3.480   4.882
 1231SOL     OW 3511   0.063   3.102   4.752
 1231SOL    HW1 3512   0.053   3.123   4.849
 1231SOL    HW2 3513   5.061   3.106   4.707
 1232SOL     OW 3514   1.676   1.994   4.213
 1232SOL    HW1 3515   1.755   1.994   4.152
 1232SOL    HW2 3516   1.673   1.907   4.263
 1233SOL     OW 3517   1.360   3.442   4.201
 1233SOL    HW1 3518   1.421   3.466   4.126
 1233SOL    HW2 3519   1.320   3.526   4.240
 1234SOL     OW 3520   1.263   2.782   4.386
 1234SOL    HW1 3521   1.337   2.721   4.414
 1234SOL    HW2 3522   1.301   2.864   4.344
 1235SOL     OW 3523   0.657   3.476   3.886
 1235SOL    HW1 3524   0.676   3.489   3.789
 1235SOL    HW2 3525   0.600   3.395   3.898
 1236SOL     OW 3526   1.636   3.613   0.030
 1236SOL    HW1 3527   1.686   3.601   5.031
 1236SOL    HW2 3528   1.670   3.695   0.077
 1237SOL     OW 3529   1.841   2.021   4.709
 1237SOL    HW1 3530   1.861   1.930   4.672
 1237SOL    HW2 3531   1.756   2.055   4.670
 1238SOL     OW 3532   0.278   2.166   4.451
 1238SOL    HW1 3533   0.250   2.261   4.436
 1238SOL    HW2 3534   0.288   2.149   4.549
 1239SOL     OW 3535   1.177   3.478   3.736
 1239SOL    HW1 3536   1.186   3.381   3.758
 1239SOL    HW2 3537   1.122   3.489   3.654
 1240SOL     OW 3538   0.787   2.902   0.006
 1240SOL    HW1 3539   0.848   2.896   5.014
 1240SOL    HW2 3540   0.842   2.912   0.089
 1241SOL     OW 3541   0.930   2.774   4.001
 1241SOL    HW1 3542   1.001   2.812   3.943
 1241SOL    HW2 3543   0.961   2.687   4.040
 1242SOL     OW 3544   1.530   3.501   3.745
 1242SOL    HW1 3545   1.431   3.491   3.737
 1242SOL    HW2 3546   1.572   3.493   3.655
 1243SOL     OW 3547   1.051   2.999   4.428
 1243SOL    HW1 3548   0.981   2.941   4.469
 1243SOL    HW2 3549   1.112   2.943   4.372
 1244SOL     OW 3550   1.025   2.079   4.692
 1244SOL    HW1 3551   1.032   2.019   4.612
 1244SOL    HW2 3552   1.038   2.025   4.776
 1245SOL     OW 3553   0.597   3.338   4.193
 1245SOL    HW1 3554   0.647   3.290   4.122
 1245SOL    HW2 3555   0.528   3.398   4.152
 1246SOL     OW 3556   1.756   2.272   0.004
 1246SOL    HW1 3557   1.843   2.273   0.054
 1246SOL    HW2 3558   1.744   2.184   5.047
 1247SOL     OW 3559   0.241   3.240   4.006
 1247SOL    HW1 3560   0.149   3.209   3.982
 1247SOL    HW2 3561   0.249   3.250   4.105
 1248SOL     OW 3562   0.075   2.203   3.760
 1248SOL    HW1 3563   0.001   2.147   3.724
 1248SOL    HW2 3564   0.104   2.270   3.692
 1249SOL     OW 3565   0.073   2.060   4.029
 1249SOL    HW1 3566   0.058   2.107   3.942
 1249SOL    HW2 3567   0.117   1.972   4.012
 1250SOL     OW 3568   1.195   3.216   3.841
 1250SOL    HW1 3569   1.104   3.177   3.845
 1250SOL    HW2 3570   1.233   3.224   3.933
 1251SOL     OW 3571   1.515   3.642   4.703
 1251SOL    HW1 3572   1.548   3.681   4.617
 1251SOL    HW2 3573   1.591   3.636   4.768
 1252SOL     OW 3574   1.475   3.136   0.305
 1252SOL    HW1 3575   1.405   3.067   0.322
 1252SOL    HW2 3576   1.558   3.092   0.270
 1253SOL     OW 3577   1.656   2.744   4.976
 1253SOL    HW1 3578   1.646   2.650   4.944
 1253SOL    HW2 3579   1.649   2.807   4.899
 1254SOL     OW 3580   1.210   2.179   4.210
 1254SOL    HW1 3581   1.280   2.110   4.191
 1254SOL    HW2 3582   1.240   2.237   4.286
 1255SOL     OW 3583   0.617   2.603   4.385
 1255SOL    HW1 3584   0.662   2.691   4.374
 1255SOL    HW2 3585   0.538   2.597   4.323
 1256SOL     OW 3586   1.793   2.747   0.128
 1256SOL    HW1 3587   1.796   2.842   0.162
 1256SOL    HW2 3588   1.735   2.743   0.047
 1257SOL     OW 3589   0.869   3.221   3.765
 1257SOL    HW1 3590   0.830   3.232   3.856
 1257SOL    HW2 3591   0.887   3.311   3.726
 1258SOL     OW 3592   0.642   3.680   4.658
 1258SOL    HW1 3593   0.632   3.779   4.643
 1258SOL    HW2 3594   0.739   3.655   4.648
 1259SOL     OW 3595   0.885   2.820   4.561
 1259SOL    HW1 3596   0.918   2.737   4.605
 1259SOL    HW2 3597   0.843   2.879   4.630
 1260SOL     OW 3598   1.103   2.868   3.814
 1260SOL    HW1 3599   1.072   2.918   3.733
 1260SOL    HW2 3600   1.172   2.801   3.787
 1261SOL     OW 3601   1.859   3.399   4.542
 1261SOL    HW1 3602   1.760   3.394   4.533
 1261SOL    HW2 3603   1.889   3.339   4.617
 1262SOL     OW 3604   0.069   3.071   4.378
 1262SOL    HW1 3605   0.070   3.057   4.477
 1262SOL    HW2 3606   0.161   3.059   4.342
 1263SOL     OW 3607   1.818   2.032   4.981
 1263SOL    HW1 3608   1.854   1.939   4.981
 1263SOL    HW2 3609   1.816   2.068   4.888
 1264SOL     OW 3610   0.469   2.311   4.277
 1264SOL    HW1 3611   0.517   2.261   4.205
 1264SOL    HW2 3612   0.451   2.250   4.354
 1265SOL     OW 3613   1.694   3.342   4.826
 1265SOL    HW1 3614   1.612   3.307   4.780
 1265SOL    HW2 3615   1.709   3.292   4.911
 1266SOL     OW 3616   0.815   3.476   4.428
 1266SOL    HW1 3617   0.803   3.529   4.345
 1266SOL    HW2 3618   0.743   3.407   4.435
 1267SOL     OW 3619   1.436   2.119   4.840
 1267SOL    HW1 3620   1.473   2.044   4.894
 1267SOL    HW2 3621   1.380   2.178   4.899
 1268SOL     OW 3622   1.051   1.880   4.890
 1268SOL    HW1 3623   0.996   1.831   4.821
 1268SOL    HW2 3624   1.136   1.830   4.905
 1269SOL     OW 3625   0.775   3.194   4.032
 1269SOL    HW1 3626   0.745   3.099   4.029
 1269SOL    HW2 3627   0.842   3.207   4.105
 1270SOL     OW 3628   1.332   1.879   3.897
 1270SOL    HW1 3629   1.355   1.828   3.814
 1270SOL    HW2 3630   1.243   1.848   3.931
 1271SOL     OW 3631   1.272   2.340   4.416
 1271SOL    HW1 3632   1.209   2.418   4.419
 1271SOL    HW2 3633   1.272   2.293   4.504
 1272SOL     OW 3634   1.600   2.107   4.618
 1272SOL    HW1 3635   1.526   2.116   4.685
 1272SOL    HW2 3636   1.588   2.174   4.546
 1273SOL     OW 3637   0.090   2.924   3.991
 1273SOL    HW1 3638   0.176   2.873   3.980
 1273SOL    HW2 3639   0.018   2.862   4.021
 1274SOL     OW 3640   0.879   3.523   4.060
 1274SOL    HW1 3641   0.801   3.498   4.002
 1274SOL    HW2 3642   0.854   3.602   4.117
 1275SOL     OW 3643   0.209   4.386   0.103
 1275SOL    HW1 3644   0.157   4.358   0.184
 1275SOL    HW2 3645   0.276   4.315   0.081
 1276SOL     OW 3646   0.231   3.992   1.004
 1276SOL    HW1 3647   0.256   3.972   1.098
 1276SOL    HW2 3648   0.157   3.931   0.975
 1277SOL     OW 3649   5.078   4.106   0.667
 1277SOL    HW1 3650   5.051   4.109   0.763
 1277SOL    HW2 3651   0.020   4.013   0.643
 1278SOL     OW 3652   0.538   4.949   1.169
 1278SOL    HW1 3653   0.461   4.993   1.123
 1278SOL    HW2 3654   0.596   5.018   1.211
 1279SOL     OW 3655   1.534   0.126   0.697
 1279SOL    HW1 3656   1.486   0.104   0.782
 1279SOL    HW2 3657   1.469   0.130   0.621
 1280SOL     OW 3658   1.124   4.411   0.717
 1280SOL    HW1 3659   1.171   4.491   0.678
 1280SOL    HW2 3660   1.071   4.439   0.797
 1281SOL     OW 3661   1.775   4.275   0.232
 1281SOL    HW1 3662   1.714   4.320   0.166
 1281SOL    HW2 3663   1.724   4.207   0.284
 1282SOL     OW 3664   0.763   4.870   1.029
 1282SOL    HW1 3665   0.686   4.873   1.093
 1282SOL    HW2 3666   0.762   4.953   0.973
 1283SOL     OW 3667   0.888   4.479   1.813
 1283SOL    HW1 3668   0.855   4.543   1.883
 1283SOL    HW2 3669   0.912   4.529   1.730
 1284SOL     OW 3670   0.696   4.715   0.644
 1284SOL    HW1 3671   0.775   4.715   0.705
 1284SOL    HW2 3672   0.622   4.768   0.685
 1285SOL     OW 3673   0.670   4.882   1.799
 1285SOL    HW1 3674   0.719   4.948   1.856
 1285SOL    HW2 3675   0.602   4.930   1.744
 1286SOL     OW 3676   0.352   0.008   1.041
 1286SOL    HW1 3677   0.270   5.062   0.995
 1286SOL    HW2 3678   0.400   0.073   0.982
 1287SOL     OW 3679   0.423   4.111   1.557
 1287SOL    HW1 3680   0.501   4.062   1.519
 1287SOL    HW2 3681   0.338   4.065   1.531
 1288SOL     OW 3682   1.587   4.150   0.709
 1288SOL    HW1 3683   1.490   4.161   0.687
 1288SOL    HW2 3684   1.624   4.238   0.739
 1289SOL     OW 3685   0.271   4.796   0.896
 1289SOL    HW1 3686   0.268   4.700   0.926
 1289SOL    HW2 3687   0.210   4.850   0.953
 1290SOL     OW 3688   0.553   4.717   0.146
 1290SOL    HW1 3689   0.625   4.709   0.077
 1290SOL    HW2 3690   0.595   4.741   0.234
 1291SOL     OW 3691   1.613   3.824   1.489
 1291SOL    HW1 3692   1.637   3.885   1.413
 1291SOL    HW2 3693   1.608   3.877   1.574
 1292SOL     OW 3694   0.150   4.327   0.564
 1292SOL    HW1 3695   0.081   4.257   0.581
 1292SOL    HW2 3696   0.135   4.405   0.625
 1293SOL     OW 3697   1.692   4.631   0.681
 1293SOL    HW1 3698   1.781   4.595   0.653
 1293SOL    HW2 3699   1.659   4.696   0.613
 1294SOL     OW 3700   1.644   4.833   0.500
 1294SOL    HW1 3701   1.722   4.829   0.438
 1294SOL    HW2 3702   1.668   4.889   0.579
 1295SOL     OW 3703   0.101   4.422   1.614
 1295SOL    HW1 3704   0.186   4.462   1.648
 1295SOL    HW2 3705   0.056   4.487   1.552
 1296SOL     OW 3706   1.295   4.930   1.418
 1296SOL    HW1 3707   1.342   4.872   1.352
 1296SOL    HW2 3708   1.350   4.938   1.501
 1297SOL     OW 3709   0.824   3.728   0.500
 1297SOL    HW1 3710   0.865   3.819   0.495
 1297SOL    HW2 3711   0.725   3.736   0.507
 1298SOL     OW 3712   0.211   4.678   1.214
 1298SOL    HW1 3713   0.303   4.639   1.216
 1298SOL    HW2 3714   0.159   4.638   1.138
 1299SOL     OW 3715   1.535   4.727   0.207
 1299SOL    HW1 3716   1.470   4.655   0.227
 1299SOL    HW2 3717   1.609   4.725   0.275
 1300SOL     OW 3718   0.327   3.936   1.868
 1300SOL    HW1 3719   0.397   4.007   1.862
 1300SOL    HW2 3720   0.239   3.978   1.891
 1301SOL     OW 3721   1.450   0.071   0.936
 1301SOL    HW1 3722   1.406   0.105   1.019
 1301SOL    HW2 3723   1.428   5.061   0.923
 1302SOL     OW 3724   0.585   4.430   0.265
 1302SOL    HW1 3725   0.615   4.518   0.228
 1302SOL    HW2 3726   0.524   4.445   0.342
 1303SOL     OW 3727   1.270   4.050   0.909
 1303SOL    HW1 3728   1.175   4.029   0.932
 1303SOL    HW2 3729   1.330   4.016   0.981
 1304SOL     OW 3730   0.830   4.305   1.428
 1304SOL    HW1 3731   0.806   4.287   1.524
 1304SOL    HW2 3732   0.757   4.272   1.368
 1305SOL     OW 3733   1.393   4.200   1.663
 1305SOL    HW1 3734   1.400   4.256   1.745
 1305SOL    HW2 3735   1.455   4.122   1.671
 1306SOL     OW 3736   0.971   4.607   1.581
 1306SOL    HW1 3737   1.021   4.527   1.548
 1306SOL    HW2 3738   0.913   4.643   1.508
 1307SOL     OW 3739   0.979   4.112   1.241
 1307SOL    HW1 3740   0.911   4.143   1.308
 1307SOL    HW2 3741   0.934   4.057   1.171
 1308SOL     OW 3742   1.032   4.436   0.433
 1308SOL    HW1 3743   1.049   4.442   0.531
 1308SOL    HW2 3744   0.950   4.382   0.416
 1309SOL     OW 3745   0.123   4.522   0.754
 1309SOL    HW1 3746   0.212   4.514   0.801
 1309SOL    HW2 3747   0.054   4.554   0.819
 1310SOL     OW 3748   0.881   4.078   0.229
 1310SOL    HW1 3749   0.908   4.141   0.156
 1310SOL    HW2 3750   0.883   3.984   0.194
 1311SOL     OW 3751   1.699   4.313   1.828
 1311SOL    HW1 3752   1.661   4.392   1.782
 1311SOL    HW2 3753   1.739   4.250   1.761
 1312SOL     OW 3754   1.363   4.854   0.584
 1312SOL    HW1 3755   1.442   4.854   0.523
 1312SOL    HW2 3756   1.301   4.929   0.560
 1313SOL     OW 3757   0.562   3.946   0.897
 1313SOL    HW1 3758   0.565   3.945   0.996
 1313SOL    HW2 3759   0.572   4.040   0.864
 1314SOL     OW 3760   1.813   4.769   0.905
 1314SOL    HW1 3761   1.765   4.761   0.817
 1314SOL    HW2 3762   1.746   4.771   0.979
 1315SOL     OW 3763   0.307   4.645   0.219
 1315SOL    HW1 3764   0.396   4.678   0.187
 1315SOL    HW2 3765   0.283   4.560   0.172
 1316SOL     OW 3766   1.483   4.466   0.703
 1316SOL    HW1 3767   1.476   4.435   0.798
 1316SOL    HW2 3768   1.562   4.527   0.694
 1317SOL     OW 3769   0.178   4.005   1.503
 1317SOL    HW1 3770   0.098   4.056   1.470
 1317SOL    HW2 3771   0.147   3.917   1.540
 1318SOL     OW 3772   1.626   0.053   0.023
 1318SOL    HW1 3773   1.581   0.127   0.073
 1318SOL    HW2 3774   1.577   5.054   0.037
 1319SOL     OW 3775   1.426   3.825   0.470
 1319SOL    HW1 3776   1.409   3.789   0.378
 1319SOL    HW2 3777   1.524   3.831   0.486
 1320SOL     OW 3778   0.413   4.412   0.479
 1320SOL    HW1 3779   0.428   4.314   0.491
 1320SOL    HW2 3780   0.323   4.436   0.517
 1321SOL     OW 3781   1.527   3.973   1.716
 1321SOL    HW1 3782   1.533   3.979   1.816
 1321SOL    HW2 3783   1.463   3.900   1.691
 1322SOL     OW 3784   0.774   3.988   1.740
 1322SOL    HW1 3785   0.847   3.920   1.739
 1322SOL    HW2 3786   0.711   3.968   1.815
 1323SOL     OW 3787   1.345   4.319   1.428
 1323SOL    HW1 3788   1.371   4.283   1.517
 1323SOL    HW2 3789   1.388   4.408   1.414
 1324SOL     OW 3790   0.744   0.041   0.936
 1324SOL    HW1 3791   0.826   0.049   0.879
 1324SOL    HW2 3792   0.671   0.097   0.898
 1325SOL     OW 3793   0.916   4.228   0.915
 1325SOL    HW1 3794   0.879   4.210   0.824
 1325SOL    HW2 3795   0.964   4.146   0.948
 1326SOL     OW 3796   0.561   3.779   0.484
 1326SOL    HW1 3797   0.487   3.782   0.551
 1326SOL    HW2 3798   0.550   3.853   0.418
 1327SOL     OW 3799   1.430   4.918   0.044
 1327SOL    HW1 3800   1.482   4.845   0.087
 1327SOL    HW2 3801   1.341   4.883   0.014
 1328SOL     OW 3802   0.380   3.775   0.141
 1328SOL    HW1 3803   0.406   3.854   0.196
 1328SOL    HW2 3804   0.388   3.692   0.197
 1329SOL     OW 3805   0.951   3.969   0.483
 1329SOL    HW1 3806   0.920   4.011   0.398
 1329SOL    HW2 3807   1.049   3.984   0.494
 1330SOL     OW 3808   1.089   4.397   1.467
 1330SOL    HW1 3809   1.020   4.324   1.463
 1330SOL    HW2 3810   1.180   4.357   1.455
 1331SOL     OW 3811   1.246   0.183   0.727
 1331SOL    HW1 3812   1.221   0.274   0.693
 1331SOL    HW2 3813   1.279   0.190   0.821
 1332SOL     OW 3814   0.479   4.843   0.732
 1332SOL    HW1 3815   0.416   4.832   0.810
 1332SOL    HW2 3816   0.426   4.853   0.648
 1333SOL     OW 3817   1.012   4.256   0.062
 1333SOL    HW1 3818   0.986   4.336   0.008
 1333SOL    HW2 3819   1.084   4.281   0.127
 1334SOL     OW 3820   0.084   4.253   1.387
 1334SOL    HW1 3821   0.178   4.259   1.353
 1334SOL    HW2 3822   0.067   4.326   1.454
 1335SOL     OW 3823   0.565   3.949   1.171
 1335SOL    HW1 3824   0.622   3.873   1.204
 1335SOL    HW2 3825   0.471   3.937   1.202
 1336SOL     OW 3826   0.841   4.170   0.665
 1336SOL    HW1 3827   0.830   4.242   0.596
 1336SOL    HW2 3828   0.866   4.084   0.621
 1337SOL     OW 3829   0.984   3.793   0.766
 1337SOL    HW1 3830   0.954   3.778   0.672
 1337SOL    HW2 3831   0.965   3.711   0.820
 1338SOL     OW 3832   1.443   4.891   0.876
 1338SOL    HW1 3833   1.413   4.802   0.910
 1338SOL    HW2 3834   1.426   4.896   0.777
 1339SOL     OW 3835   1.479   4.336   0.984
 1339SOL    HW1 3836   1.440   4.245   0.973
 1339SOL    HW2 3837   1.549   4.334   1.055
 1340SOL     OW 3838   1.822   4.522   0.403
 1340SOL    HW1 3839   1.881   4.459   0.454
 1340SOL    HW2 3840   1.821   4.495   0.306
 1341SOL     OW 3841   1.685   4.988   0.706
 1341SOL    HW1 3842   1.781   5.006   0.688
 1341SOL    HW2 3843   1.635   5.074   0.712
 1342SOL     OW 3844   1.368   4.270   0.087
 1342SOL    HW1 3845   1.323   4.282   0.175
 1342SOL    HW2 3846   1.432   4.193   0.093
 1343SOL     OW 3847   0.545   3.958   0.286
 1343SOL    HW1 3848   0.640   3.957   0.256
 1343SOL    HW2 3849   0.499   4.039   0.249
 1344SOL     OW 3850   1.743   4.944   1.571
 1344SOL    HW1 3851   1.843   4.945   1.575
 1344SOL    HW2 3852   1.708   5.033   1.600
 1345SOL     OW 3853   1.619   4.823   1.086
 1345SOL    HW1 3854   1.622   4.880   1.168
 1345SOL    HW2 3855   1.558   4.865   1.019
 1346SOL     OW 3856   0.948   3.812   1.398
 1346SOL    HW1 3857   0.967   3.784   1.304
 1346SOL    HW2 3858   1.028   3.858   1.437
 1347SOL     OW 3859   0.992   4.825   1.740
 1347SOL    HW1 3860   0.899   4.862   1.746
 1347SOL    HW2 3861   0.994   4.749   1.675
 1348SOL     OW 3862   0.683   4.765   0.371
 1348SOL    HW1 3863   0.682   4.753   0.470
 1348SOL    HW2 3864   0.765   4.723   0.333
 1349SOL     OW 3865   0.445   4.536   1.249
 1349SOL    HW1 3866   0.510   4.549   1.324
 1349SOL    HW2 3867   0.397   4.449   1.261
 1350SOL     OW 3868   1.264   4.108   1.271
 1350SOL    HW1 3869   1.292   4.189   1.322
 1350SOL    HW2 3870   1.168   4.115   1.247
 1351SOL     OW 3871   0.333   4.857   0.504
 1351SOL    HW1 3872   0.393   4.924   0.462
 1351SOL    HW2 3873   0.318   4.781   0.440
 1352SOL     OW 3874   0.554   4.269   0.857
 1352SOL    HW1 3875   0.569   4.327   0.777
 1352SOL    HW2 3876   0.614   4.300   0.931
 1353SOL     OW 3877   1.571   4.321   0.461
 1353SOL    HW1 3878   1.523   4.367   0.535
 1353SOL    HW2 3879   1.629   4.386   0.412
 1354SOL     OW 3880   0.401   4.445   1.624
 1354SOL    HW1 3881   0.461   4.497   1.563
 1354SOL    HW2 3882   0.436   4.351   1.632
 1355SOL     OW 3883   1.599   4.526   1.695
 1355SOL    HW1 3884   1.506   4.564   1.692
 1355SOL    HW2 3885   1.656   4.574   1.627
 1356SOL     OW 3886   0.988   3.826   1.738
 1356SOL    HW1 3887   1.043   3.909   1.741
 1356SOL    HW2 3888   1.042   3.752   1.698
 1357SOL     OW 3889   0.481   3.754   1.734
 1357SOL    HW1 3890   0.441   3.686   1.673
 1357SOL    HW2 3891   0.410   3.819   1.763
 1358SOL     OW 3892   0.591   4.603   1.025
 1358SOL    HW1 3893   0.605   4.702   1.022
 1358SOL    HW2 3894   0.545   4.578   1.110
 1359SOL     OW 3895   1.355   4.588   0.995
 1359SOL    HW1 3896   1.265   4.556   0.965
 1359SOL    HW2 3897   1.417   4.509   1.006
 1360SOL     OW 3898   1.187   4.263   0.291
 1360SOL    HW1 3899   1.215   4.193   0.357
 1360SOL    HW2 3900   1.141   4.337   0.340
 1361SOL     OW 3901   0.287   3.911   1.250
 1361SOL    HW1 3902   0.252   3.937   1.340
 1361SOL    HW2 3903   0.277   3.813   1.238
 1362SOL     OW 3904   0.102   5.070   1.261
 1362SOL    HW1 3905   0.135   5.001   1.325
 1362SOL    HW2 3906   0.017   0.023   1.295
 1363SOL     OW 3907   0.761   4.384   1.084
 1363SOL    HW1 3908   0.822   4.339   1.020
 1363SOL    HW2 3909   0.721   4.465   1.042
 1364SOL     OW 3910   1.755   4.676   1.863
 1364SOL    HW1 3911   1.700   4.614   1.806
 1364SOL    HW2 3912   1.704   4.700   1.945
 1365SOL     OW 3913   0.320   3.794   0.620
 1365SOL    HW1 3914   0.291   3.884   0.653
 1365SOL    HW2 3915   0.337   3.734   0.698
 1366SOL     OW 3916   1.647   4.072   0.378
 1366SOL    HW1 3917   1.654   3.997   0.443
 1366SOL    HW2 3918   1.610   4.153   0.424
 1367SOL     OW 3919   1.042   4.492   0.994
 1367SOL    HW1 3920   1.019   4.516   1.088
 1367SOL    HW2 3921   1.033   4.393   0.981
 1368SOL     OW 3922   1.878   0.120   1.600
 1368SOL    HW1 3923   1.800   0.150   1.546
 1368SOL    HW2 3924   1.867   0.150   1.695
 1369SOL     OW 3925   0.374   4.636   1.803
 1369SOL    HW1 3926   0.460   4.652   1.853
 1369SOL    HW2 3927   0.383   4.555   1.746
 1370SOL     OW 3928   1.520   3.992   0.148
 1370SOL    HW1 3929   1.455   3.922   0.176
 1370SOL    HW2 3930   1.576   4.019   0.226
 1371SOL     OW 3931   1.280   4.537   0.025
 1371SOL    HW1 3932   1.328   4.449   0.019
 1371SOL    HW2 3933   1.322   4.603   5.050
 1372SOL     OW 3934   0.326   4.525   0.943
 1372SOL    HW1 3935   0.423   4.547   0.946
 1372SOL    HW2 3936   0.309   4.443   0.999
 1373SOL     OW 3937   0.339   4.234   1.014
 1373SOL    HW1 3938   0.301   4.143   1.000
 1373SOL    HW2 3939   0.410   4.252   0.945
 1374SOL     OW 3940   1.156   4.073   1.700
 1374SOL    HW1 3941   1.100   4.125   1.765
 1374SOL    HW2 3942   1.244   4.118   1.689
 1375SOL     OW 3943   1.181   3.922   1.479
 1375SOL    HW1 3944   1.178   3.978   1.562
 1375SOL    HW2 3945   1.218   3.976   1.404
 1376SOL     OW 3946   5.010   5.021   0.155
 1376SOL    HW1 3947   4.953   5.042   0.235
 1376SOL    HW2 3948   5.086   4.963   0.183
 1377SOL     OW 3949   0.966   4.518   1.247
 1377SOL    HW1 3950   1.015   4.473   1.322
 1377SOL    HW2 3951   0.880   4.470   1.231
 1378SOL     OW 3952   0.100   4.340   1.096
 1378SOL    HW1 3953   0.182   4.293   1.064
 1378SOL    HW2 3954   0.063   4.292   1.176
 1379SOL     OW 3955   0.211   4.208   1.742
 1379SOL    HW1 3956   0.284   4.173   1.684
 1379SOL    HW2 3957   0.160   4.279   1.693
 1380SOL     OW 3958   1.363   4.662   1.655
 1380SOL    HW1 3959   1.380   4.760   1.650
 1380SOL    HW2 3960   1.364   4.622   1.564
 1381SOL     OW 3961   0.807   4.287   0.395
 1381SOL    HW1 3962   0.832   4.212   0.333
 1381SOL    HW2 3963   0.733   4.340   0.356
 1382SOL     OW 3964   1.649   4.353   1.215
 1382SOL    HW1 3965   1.606   4.283   1.272
 1382SOL    HW2 3966   1.728   4.315   1.168
 1383SOL     OW 3967   0.655   4.204   1.264
 1383SOL    HW1 3968   0.620   4.117   1.228
 1383SOL    HW2 3969   0.684   4.262   1.188
 1384SOL     OW 3970   0.445   4.189   0.188
 1384SOL    HW1 3971   0.502   4.270   0.206
 1384SOL    HW2 3972   0.362   4.194   0.243
 1385SOL     OW 3973   0.210   4.853   1.432
 1385SOL    HW1 3974   0.187   4.789   1.505
 1385SOL    HW2 3975   0.214   4.805   1.344
 1386SOL     OW 3976   1.328   4.737   1.215
 1386SOL    HW1 3977   1.344   4.684   1.131
 1386SOL    HW2 3978   1.237   4.777   1.213
 1387SOL     OW 3979   1.344   4.559   0.291
 1387SOL    HW1 3980   1.272   4.551   0.360
 1387SOL    HW2 3981   1.302   4.560   0.200
 1388SOL     OW 3982   0.089   4.982   0.992
 1388SOL    HW1 3983   0.092   5.019   1.085
 1388SOL    HW2 3984   5.080   4.978   0.961
 1389SOL     OW 3985   0.866   3.818   0.153
 1389SOL    HW1 3986   0.885   3.821   0.054
 1389SOL    HW2 3987   0.940   3.770   0.199
 1390SOL     OW 3988   1.704   3.849   0.522
 1390SOL    HW1 3989   1.772   3.836   0.450
 1390SOL    HW2 3990   1.695   3.764   0.574
 1391SOL     OW 3991   1.267   4.615   0.634
 1391SOL    HW1 3992   1.344   4.556   0.656
 1391SOL    HW2 3993   1.302   4.704   0.602
 1392SOL     OW 3994   0.790   4.972   1.460
 1392SOL    HW1 3995   0.836   5.059   1.475
 1392SOL    HW2 3996   0.692   4.989   1.445
 1393SOL     OW 3997   1.844   3.893   0.962
 1393SOL    HW1 3998   1.864   3.798   0.938
 1393SOL    HW2 3999   1.755   3.920   0.925
 1394SOL     OW 4000   0.257   4.026   0.728
 1394SOL    HW1 4001   0.200   4.104   0.702
 1394SOL    HW2 4002   0.257   4.016   0.827
 1395SOL     OW 4003   0.806   4.721   1.394
 1395SOL    HW1 4004   0.842   4.710   1.302
 1395SOL    HW2 4005   0.813   4.818   1.421
 1396SOL     OW 4006   0.889   4.642   0.258
 1396SOL    HW1 4007   0.964   4.686   0.208
 1396SOL    HW2 4008   0.925   4.565   0.310
 1397SOL     OW 4009   0.420   5.027   1.487
 1397SOL    HW1 4010   0.405   0.022   1.431
 1397SOL    HW2 4011   0.355   4.956   1.460
 1398SOL     OW 4012   1.631   4.996   1.302
 1398SOL    HW1 4013   1.686   4.960   1.377
 1398SOL    HW2 4014   1.560   5.057   1.338
 1399SOL     OW 4015   1.078   4.818   0.716
 1399SOL    HW1 4016   0.999   4.771   0.755
 1399SOL    HW2 4017   1.147   4.751   0.689
 1400SOL     OW 4018   1.022   3.954   0.985
 1400SOL    HW1 4019   1.000   3.912   0.897
 1400SOL    HW2 4020   1.032   3.883   1.054
 1401SOL     OW 4021   1.709   4.111   1.377
 1401SOL    HW1 4022   1.774   4.187   1.382
 1401SOL    HW2 4023   1.744   4.041   1.315
 1402SOL     OW 4024   0.147   4.719   1.678
 1402SOL    HW1 4025   0.091   4.783   1.733
 1402SOL    HW2 4026   0.229   4.694   1.730
 1403SOL     OW 4027   0.713   3.918   1.475
 1403SOL    HW1 4028   0.802   3.883   1.445
 1403SOL    HW2 4029   0.721   3.952   1.569
 1404SOL     OW 4030   0.073   4.042   0.043
 1404SOL    HW1 4031   5.066   4.011   0.056
 1404SOL    HW2 4032   0.075   4.116   5.063
 1405SOL     OW 4033   1.435   4.579   1.402
 1405SOL    HW1 4034   1.381   4.632   1.336
 1405SOL    HW2 4035   1.532   4.599   1.390
 1406SOL     OW 4036   0.040   3.932   0.326
 1406SOL    HW1 4037   0.055   3.996   0.251
 1406SOL    HW2 4038   0.087   3.846   0.306
 1407SOL     OW 4039   0.609   4.549   1.460
 1407SOL    HW1 4040   0.666   4.629   1.442
 1407SOL    HW2 4041   0.668   4.471   1.481
 1408SOL     OW 4042   0.745   4.268   1.676
 1408SOL    HW1 4043   0.776   4.332   1.747
 1408SOL    HW2 4044   0.745   4.175   1.713
 1409SOL     OW 4045   1.465   4.909   1.633
 1409SOL    HW1 4046   1.444   4.928   1.729
 1409SOL    HW2 4047   1.564   4.898   1.622
 1410SOL     OW 4048   1.701   4.622   1.263
 1410SOL    HW1 4049   1.689   4.524   1.246
 1410SOL    HW2 4050   1.664   4.674   1.186
 1411SOL     OW 4051   1.225   4.054   0.480
 1411SOL    HW1 4052   1.285   3.976   0.463
 1411SOL    HW2 4053   1.258   4.105   0.559
 1412SOL     OW 4054   0.602   4.455   0.665
 1412SOL    HW1 4055   0.643   4.546   0.666
 1412SOL    HW2 4056   0.534   4.450   0.592
 1413SOL     OW 4057   1.764   4.086   1.639
 1413SOL    HW1 4058   1.743   4.101   1.543
 1413SOL    HW2 4059   1.688   4.038   1.683
 1414SOL     OW 4060   1.742   4.670   1.522
 1414SOL    HW1 4061   1.759   4.767   1.544
 1414SOL    HW2 4062   1.736   4.659   1.423
 1415SOL     OW 4063   0.888   4.676   0.848
 1415SOL    HW1 4064   0.937   4.606   0.900
 1415SOL    HW2 4065   0.847   4.741   0.912
 1416SOL     OW 4066   1.093   4.726   0.094
 1416SOL    HW1 4067   1.072   4.786   0.017
 1416SOL    HW2 4068   1.160   4.657   0.065
 1417SOL     OW 4069   0.074   4.917   0.631
 1417SOL    HW1 4070   0.095   4.892   0.726
 1417SOL    HW2 4071   0.157   4.910   0.576
 1418SOL     OW 4072   1.805   3.893   1.234
 1418SOL    HW1 4073   1.829   3.797   1.254
 1418SOL    HW2 4074   1.816   3.910   1.136
 1419SOL     OW 4075   0.474   4.155   0.523
 1419SOL    HW1 4076   0.545   4.107   0.470
 1419SOL    HW2 4077   0.459   4.107   0.609
 1420SOL     OW 4078   0.338   4.282   1.278
 1420SOL    HW1 4079   0.401   4.234   1.340
 1420SOL    HW2 4080   0.350   4.248   1.185
 1421SOL     OW 4081   1.425   3.964   1.102
 1421SOL    HW1 4082   1.472   3.887   1.146
 1421SOL    HW2 4083   1.369   4.012   1.170
 1422SOL     OW 4084   1.022   3.723   1.153
 1422SOL    HW1 4085   0.960   3.662   1.102
 1422SOL    HW2 4086   1.114   3.685   1.151
 1423SOL     OW 4087   0.800   5.011   0.306
 1423SOL    HW1 4088   0.737   4.935   0.322
 1423SOL    HW2 4089   0.820   5.057   0.393
 1424SOL     OW 4090   1.346   3.766   0.210
 1424SOL    HW1 4091   1.386   3.719   0.132
 1424SOL    HW2 4092   1.270   3.823   0.179
 1425SOL     OW 4093   1.305   4.205   0.701
 1425SOL    HW1 4094   1.244   4.284   0.703
 1425SOL    HW2 4095   1.287   4.146   0.780
 1426SOL     OW 4096   1.599   3.932   0.865
 1426SOL    HW1 4097   1.516   3.930   0.920
 1426SOL    HW2 4098   1.592   4.005   0.797
 1427SOL     OW 4099   0.100   4.834   0.275
 1427SOL    HW1 4100   0.167   4.763   0.255
 1427SOL    HW2 4101   0.034   4.800   0.342
 1428SOL     OW 4102   0.206   4.378   1.997
 1428SOL    HW1 4103   0.150   4.320   2.058
 1428SOL    HW2 4104   0.244   4.322   1.924
 1429SOL     OW 4105   0.228   3.979   2.852
 1429SOL    HW1 4106   0.249   3.970   2.950
 1429SOL    HW2 4107   0.162   3.908   2.827
 1430SOL     OW 4108   5.068   4.132   2.498
 1430SOL    HW1 4109   5.028   4.150   2.588
 1430SOL    HW2 4110   0.021   4.041   2.496
 1431SOL     OW 4111   0.564   4.968   3.030
 1431SOL    HW1 4112   0.488   4.996   2.972
 1431SOL    HW2 4113   0.608   5.049   3.068
 1432SOL     OW 4114   1.527   0.145   2.553
 1432SOL    HW1 4115   1.481   0.108   2.633
 1432SOL    HW2 4116   1.468   0.134   2.473
 1433SOL     OW 4117   1.111   4.428   2.572
 1433SOL    HW1 4118   1.163   4.507   2.538
 1433SOL    HW2 4119   1.056   4.456   2.650
 1434SOL     OW 4120   1.770   4.308   2.088
 1434SOL    HW1 4121   1.750   4.324   1.992
 1434SOL    HW2 4122   1.717   4.231   2.122
 1435SOL     OW 4123   0.778   4.867   2.887
 1435SOL    HW1 4124   0.707   4.874   2.958
 1435SOL    HW2 4125   0.776   4.948   2.829
 1436SOL     OW 4126   0.874   4.482   3.665
 1436SOL    HW1 4127   0.845   4.546   3.736
 1436SOL    HW2 4128   0.899   4.532   3.582
 1437SOL     OW 4129   0.693   4.715   2.538
 1437SOL    HW1 4130   0.765   4.705   2.606
 1437SOL    HW2 4131   0.626   4.782   2.570
 1438SOL     OW 4132   0.666   4.877   3.657
 1438SOL    HW1 4133   0.722   4.941   3.710
 1438SOL    HW2 4134   0.599   4.929   3.603
 1439SOL     OW 4135   0.365   0.013   2.896
 1439SOL    HW1 4136   0.278   5.072   2.856
 1439SOL    HW2 4137   0.410   0.079   2.836
 1440SOL     OW 4138   0.421   4.109   3.413
 1440SOL    HW1 4139   0.498   4.057   3.377
 1440SOL    HW2 4140   0.336   4.060   3.394
 1441SOL     OW 4141   1.603   4.157   2.590
 1441SOL    HW1 4142   1.567   4.200   2.508
 1441SOL    HW2 4143   1.586   4.216   2.669
 1442SOL     OW 4144   0.277   4.792   2.763
 1442SOL    HW1 4145   0.282   4.700   2.802
 1442SOL    HW2 4146   0.213   4.848   2.816
 1443SOL     OW 4147   0.573   4.715   1.999
 1443SOL    HW1 4148   0.609   4.775   1.927
 1443SOL    HW2 4149   0.613   4.740   2.087
 1444SOL     OW 4150   1.618   3.822   3.359
 1444SOL    HW1 4151   1.632   3.888   3.286
 1444SOL    HW2 4152   1.613   3.870   3.447
 1445SOL     OW 4153   0.160   4.334   2.447
 1445SOL    HW1 4154   0.085   4.269   2.453
 1445SOL    HW2 4155   0.141   4.413   2.506
 1446SOL     OW 4156   1.694   4.655   2.524
 1446SOL    HW1 4157   1.781   4.615   2.496
 1446SOL    HW2 4158   1.656   4.707   2.448
 1447SOL     OW 4159   1.645   4.859   2.292
 1447SOL    HW1 4160   1.737   4.856   2.251
 1447SOL    HW2 4161   1.647   4.918   2.373
 1448SOL     OW 4162   0.104   4.422   3.477
 1448SOL    HW1 4163   0.194   4.456   3.502
 1448SOL    HW2 4164   0.061   4.485   3.413
 1449SOL     OW 4165   1.318   4.955   3.279
 1449SOL    HW1 4166   1.349   4.884   3.216
 1449SOL    HW2 4167   1.360   4.940   3.369
 1450SOL     OW 4168   0.818   3.719   2.374
 1450SOL    HW1 4169   0.859   3.810   2.363
 1450SOL    HW2 4170   0.719   3.729   2.383
 1451SOL     OW 4171   0.228   4.706   3.084
 1451SOL    HW1 4172   0.314   4.655   3.080
 1451SOL    HW2 4173   0.168   4.674   3.010
 1452SOL     OW 4174   1.550   4.722   2.059
 1452SOL    HW1 4175   1.469   4.668   2.083
 1452SOL    HW2 4176   1.586   4.766   2.141
 1453SOL     OW 4177   0.315   3.937   3.728
 1453SOL    HW1 4178   0.380   4.013   3.729
 1453SOL    HW2 4179   0.224   3.971   3.749
 1454SOL     OW 4180   1.434   0.072   2.797
 1454SOL    HW1 4181   1.402   0.104   2.886
 1454SOL    HW2 4182   1.415   5.061   2.789
 1455SOL     OW 4183   0.599   4.439   2.127
 1455SOL    HW1 4184   0.597   4.527   2.079
 1455SOL    HW2 4185   0.523   4.435   2.192
 1456SOL     OW 4186   1.262   4.102   2.797
 1456SOL    HW1 4187   1.172   4.060   2.809
 1456SOL    HW2 4188   1.327   4.057   2.857
 1457SOL     OW 4189   0.830   4.334   3.308
 1457SOL    HW1 4190   0.803   4.300   3.399
 1457SOL    HW2 4191   0.771   4.292   3.239
 1458SOL     OW 4192   1.396   4.197   3.533
 1458SOL    HW1 4193   1.402   4.254   3.615
 1458SOL    HW2 4194   1.456   4.118   3.543
 1459SOL     OW 4195   0.968   4.612   3.433
 1459SOL    HW1 4196   1.020   4.534   3.400
 1459SOL    HW2 4197   0.908   4.646   3.361
 1460SOL     OW 4198   0.964   4.100   3.085
 1460SOL    HW1 4199   0.878   4.118   3.133
 1460SOL    HW2 4200   0.949   4.032   3.014
 1461SOL     OW 4201   1.038   4.408   2.277
 1461SOL    HW1 4202   1.064   4.420   2.372
 1461SOL    HW2 4203   0.949   4.364   2.272
 1462SOL     OW 4204   0.113   4.542   2.633
 1462SOL    HW1 4205   0.205   4.545   2.674
 1462SOL    HW2 4206   0.045   4.566   2.702
 1463SOL     OW 4207   0.873   4.097   2.074
 1463SOL    HW1 4208   0.916   4.159   2.009
 1463SOL    HW2 4209   0.875   4.004   2.039
 1464SOL     OW 4210   1.709   4.315   3.692
 1464SOL    HW1 4211   1.674   4.398   3.649
 1464SOL    HW2 4212   1.741   4.251   3.621
 1465SOL     OW 4213   1.382   4.869   2.411
 1465SOL    HW1 4214   1.466   4.853   2.360
 1465SOL    HW2 4215   1.336   4.951   2.375
 1466SOL     OW 4216   0.572   3.943   2.757
 1466SOL    HW1 4217   0.567   3.947   2.857
 1466SOL    HW2 4218   0.583   4.036   2.721
 1467SOL     OW 4219   1.812   4.775   2.756
 1467SOL    HW1 4220   1.763   4.756   2.671
 1467SOL    HW2 4221   1.748   4.771   2.833
 1468SOL     OW 4222   0.322   4.669   2.107
 1468SOL    HW1 4223   0.398   4.688   2.045
 1468SOL    HW2 4224   0.277   4.584   2.079
 1469SOL     OW 4225   1.492   4.484   2.575
 1469SOL    HW1 4226   1.487   4.450   2.669
 1469SOL    HW2 4227   1.572   4.544   2.565
 1470SOL     OW 4228   0.175   4.007   3.373
 1470SOL    HW1 4229   0.098   4.052   3.327
 1470SOL    HW2 4230   0.143   3.920   3.411
 1471SOL     OW 4231   1.641   0.015   1.886
 1471SOL    HW1 4232   1.607   0.095   1.935
 1471SOL    HW2 4233   1.579   5.025   1.900
 1472SOL     OW 4234   1.404   3.800   2.295
 1472SOL    HW1 4235   1.401   3.770   2.200
 1472SOL    HW2 4236   1.497   3.827   2.319
 1473SOL     OW 4237   0.413   4.391   2.321
 1473SOL    HW1 4238   0.443   4.308   2.367
 1473SOL    HW2 4239   0.323   4.418   2.357
 1474SOL     OW 4240   1.533   3.968   3.596
 1474SOL    HW1 4241   1.538   3.979   3.695
 1474SOL    HW2 4242   1.470   3.894   3.574
 1475SOL     OW 4243   0.622   3.851   1.942
 1475SOL    HW1 4244   0.695   3.790   1.973
 1475SOL    HW2 4245   0.569   3.805   1.870
 1476SOL     OW 4246   0.769   3.989   3.604
 1476SOL    HW1 4247   0.849   3.931   3.615
 1476SOL    HW2 4248   0.703   3.969   3.677
 1477SOL     OW 4249   1.344   4.320   3.289
 1477SOL    HW1 4250   1.374   4.285   3.378
 1477SOL    HW2 4251   1.388   4.408   3.272
 1478SOL     OW 4252   0.762   0.044   2.798
 1478SOL    HW1 4253   0.832   0.050   2.727
 1478SOL    HW2 4254   0.683   0.100   2.773
 1479SOL     OW 4255   0.920   4.247   2.786
 1479SOL    HW1 4256   0.899   4.237   2.688
 1479SOL    HW2 4257   0.959   4.162   2.821
 1480SOL     OW 4258   0.557   3.765   2.375
 1480SOL    HW1 4259   0.474   3.763   2.430
 1480SOL    HW2 4260   0.556   3.845   2.315
 1481SOL     OW 4261   1.414   4.921   1.906
 1481SOL    HW1 4262   1.471   4.851   1.949
 1481SOL    HW2 4263   1.318   4.892   1.909
 1482SOL     OW 4264   0.291   3.746   2.066
 1482SOL    HW1 4265   0.318   3.825   2.011
 1482SOL    HW2 4266   0.372   3.702   2.104
 1483SOL     OW 4267   0.938   3.976   2.362
 1483SOL    HW1 4268   0.905   4.022   2.280
 1483SOL    HW2 4269   1.036   3.991   2.373
 1484SOL     OW 4270   1.091   4.403   3.320
 1484SOL    HW1 4271   1.018   4.336   3.333
 1484SOL    HW2 4272   1.179   4.356   3.316
 1485SOL     OW 4273   1.247   0.169   2.606
 1485SOL    HW1 4274   1.242   0.266   2.580
 1485SOL    HW2 4275   1.306   0.159   2.686
 1486SOL     OW 4276   0.471   4.871   2.592
 1486SOL    HW1 4277   0.402   4.845   2.660
 1486SOL    HW2 4278   0.437   4.848   2.501
 1487SOL     OW 4279   1.051   4.247   1.886
 1487SOL    HW1 4280   0.999   4.329   1.861
 1487SOL    HW2 4281   1.128   4.272   1.945
 1488SOL     OW 4282   0.089   4.261   3.242
 1488SOL    HW1 4283   0.184   4.266   3.210
 1488SOL    HW2 4284   0.069   4.340   3.300
 1489SOL     OW 4285   0.557   3.963   3.031
 1489SOL    HW1 4286   0.611   3.888   3.068
 1489SOL    HW2 4287   0.463   3.956   3.064
 1490SOL     OW 4288   0.871   4.201   2.525
 1490SOL    HW1 4289   0.827   4.253   2.452
 1490SOL    HW2 4290   0.901   4.112   2.489
 1491SOL     OW 4291   1.010   3.807   2.629
 1491SOL    HW1 4292   0.966   3.798   2.540
 1491SOL    HW2 4293   0.985   3.729   2.687
 1492SOL     OW 4294   1.437   4.881   2.746
 1492SOL    HW1 4295   1.398   4.792   2.772
 1492SOL    HW2 4296   1.427   4.895   2.648
 1493SOL     OW 4297   1.474   4.315   2.844
 1493SOL    HW1 4298   1.407   4.242   2.858
 1493SOL    HW2 4299   1.539   4.315   2.921
 1494SOL     OW 4300   1.846   4.522   2.251
 1494SOL    HW1 4301   1.902   4.479   2.321
 1494SOL    HW2 4302   1.834   4.459   2.174
 1495SOL     OW 4303   1.651   4.999   2.520
 1495SOL    HW1 4304   1.751   4.994   2.527
 1495SOL    HW2 4305   1.620   0.003   2.548
 1496SOL     OW 4306   1.407   4.315   1.915
 1496SOL    HW1 4307   1.364   4.278   1.998
 1496SOL    HW2 4308   1.507   4.303   1.921
 1497SOL     OW 4309   0.545   3.958   2.178
 1497SOL    HW1 4310   0.574   3.912   2.094
 1497SOL    HW2 4311   0.504   4.046   2.154
 1498SOL     OW 4312   1.747   4.941   3.423
 1498SOL    HW1 4313   1.832   4.918   3.469
 1498SOL    HW2 4314   1.738   5.040   3.416
 1499SOL     OW 4315   1.625   4.812   2.949
 1499SOL    HW1 4316   1.619   4.872   3.028
 1499SOL    HW2 4317   1.555   4.837   2.882
 1500SOL     OW 4318   0.940   3.830   3.263
 1500SOL    HW1 4319   0.962   3.805   3.169
 1500SOL    HW2 4320   1.019   3.874   3.306
 1501SOL     OW 4321   0.989   4.825   3.601
 1501SOL    HW1 4322   0.895   4.859   3.602
 1501SOL    HW2 4323   0.996   4.748   3.538
 1502SOL     OW 4324   0.693   4.783   2.233
 1502SOL    HW1 4325   0.689   4.765   2.331
 1502SOL    HW2 4326   0.777   4.745   2.195
 1503SOL     OW 4327   0.444   4.542   3.110
 1503SOL    HW1 4328   0.512   4.546   3.183
 1503SOL    HW2 4329   0.395   4.455   3.115
 1504SOL     OW 4330   1.258   4.115   3.124
 1504SOL    HW1 4331   1.282   4.190   3.186
 1504SOL    HW2 4332   1.161   4.123   3.099
 1505SOL     OW 4333   0.374   4.802   2.351
 1505SOL    HW1 4334   0.382   4.890   2.306
 1505SOL    HW2 4335   0.366   4.730   2.282
 1506SOL     OW 4336   0.552   4.276   2.716
 1506SOL    HW1 4337   0.569   4.315   2.626
 1506SOL    HW2 4338   0.616   4.317   2.782
 1507SOL     OW 4339   1.585   4.345   2.341
 1507SOL    HW1 4340   1.536   4.406   2.403
 1507SOL    HW2 4341   1.636   4.399   2.275
 1508SOL     OW 4342   0.399   4.442   3.479
 1508SOL    HW1 4343   0.462   4.490   3.418
 1508SOL    HW2 4344   0.436   4.352   3.501
 1509SOL     OW 4345   1.607   4.525   3.561
 1509SOL    HW1 4346   1.512   4.557   3.559
 1509SOL    HW2 4347   1.658   4.572   3.489
 1510SOL     OW 4348   0.987   3.841   3.618
 1510SOL    HW1 4349   1.044   3.919   3.595
 1510SOL    HW2 4350   1.036   3.756   3.597
 1511SOL     OW 4351   0.480   3.758   3.595
 1511SOL    HW1 4352   0.439   3.689   3.536
 1511SOL    HW2 4353   0.409   3.822   3.626
 1512SOL     OW 4354   0.594   4.602   2.891
 1512SOL    HW1 4355   0.610   4.699   2.878
 1512SOL    HW2 4356   0.546   4.587   2.978
 1513SOL     OW 4357   1.361   4.599   2.839
 1513SOL    HW1 4358   1.275   4.580   2.792
 1513SOL    HW2 4359   1.402   4.513   2.870
 1514SOL     OW 4360   1.231   4.240   2.132
 1514SOL    HW1 4361   1.234   4.160   2.191
 1514SOL    HW2 4362   1.166   4.306   2.169
 1515SOL     OW 4363   0.281   3.915   3.113
 1515SOL    HW1 4364   0.249   3.939   3.205
 1515SOL    HW2 4365   0.275   3.816   3.100
 1516SOL     OW 4366   0.106   5.070   3.119
 1516SOL    HW1 4367   0.138   5.000   3.183
 1516SOL    HW2 4368   0.014   0.013   3.147
 1517SOL     OW 4369   0.766   4.391   2.959
 1517SOL    HW1 4370   0.823   4.344   2.892
 1517SOL    HW2 4371   0.720   4.469   2.916
 1518SOL     OW 4372   1.758   4.683   3.730
 1518SOL    HW1 4373   1.705   4.620   3.673
 1518SOL    HW2 4374   1.711   4.698   3.817
 1519SOL     OW 4375   0.293   3.770   2.481
 1519SOL    HW1 4376   0.270   3.866   2.496
 1519SOL    HW2 4377   0.316   3.727   2.568
 1520SOL     OW 4378   1.593   4.108   2.207
 1520SOL    HW1 4379   1.622   4.030   2.262
 1520SOL    HW2 4380   1.584   4.189   2.266
 1521SOL     OW 4381   1.049   4.495   2.855
 1521SOL    HW1 4382   1.030   4.515   2.951
 1521SOL    HW2 4383   1.032   4.398   2.838
 1522SOL     OW 4384   1.878   0.112   3.466
 1522SOL    HW1 4385   1.806   0.160   3.416
 1522SOL    HW2 4386   1.869   0.131   3.564
 1523SOL     OW 4387   0.369   4.631   3.664
 1523SOL    HW1 4388   0.442   4.632   3.732
 1523SOL    HW2 4389   0.382   4.552   3.603
 1524SOL     OW 4390   1.517   3.975   1.985
 1524SOL    HW1 4391   1.449   3.906   2.011
 1524SOL    HW2 4392   1.547   4.024   2.066
 1525SOL     OW 4393   1.312   4.561   1.893
 1525SOL    HW1 4394   1.345   4.467   1.898
 1525SOL    HW2 4395   1.323   4.595   1.799
 1526SOL     OW 4396   0.327   4.531   2.818
 1526SOL    HW1 4397   0.426   4.542   2.816
 1526SOL    HW2 4398   0.304   4.457   2.881
 1527SOL     OW 4399   0.325   4.230   2.868
 1527SOL    HW1 4400   0.291   4.139   2.844
 1527SOL    HW2 4401   0.396   4.257   2.803
 1528SOL     OW 4402   1.158   4.071   3.566
 1528SOL    HW1 4403   1.101   4.124   3.629
 1528SOL    HW2 4404   1.250   4.110   3.565
 1529SOL     OW 4405   1.179   3.926   3.344
 1529SOL    HW1 4406   1.179   3.983   3.426
 1529SOL    HW2 4407   1.220   3.977   3.268
 1530SOL     OW 4408   4.981   5.035   2.030
 1530SOL    HW1 4409   4.906   5.042   2.095
 1530SOL    HW2 4410   5.065   5.010   2.078
 1531SOL     OW 4411   0.966   4.530   3.110
 1531SOL    HW1 4412   1.015   4.481   3.181
 1531SOL    HW2 4413   0.883   4.479   3.086
 1532SOL     OW 4414   0.084   4.325   2.958
 1532SOL    HW1 4415   0.167   4.281   2.924
 1532SOL    HW2 4416   0.061   4.287   3.047
 1533SOL     OW 4417   0.221   4.216   3.599
 1533SOL    HW1 4418   0.291   4.180   3.537
 1533SOL    HW2 4419   0.165   4.283   3.550
 1534SOL     OW 4420   1.358   4.646   3.515
 1534SOL    HW1 4421   1.378   4.744   3.517
 1534SOL    HW2 4422   1.369   4.612   3.422
 1535SOL     OW 4423   0.795   4.292   2.255
 1535SOL    HW1 4424   0.813   4.222   2.186
 1535SOL    HW2 4425   0.720   4.351   2.225
 1536SOL     OW 4426   1.641   4.329   3.063
 1536SOL    HW1 4427   1.613   4.268   3.137
 1536SOL    HW2 4428   1.730   4.301   3.027
 1537SOL     OW 4429   0.670   4.207   3.134
 1537SOL    HW1 4430   0.622   4.127   3.098
 1537SOL    HW2 4431   0.693   4.269   3.060
 1538SOL     OW 4432   0.475   4.202   2.054
 1538SOL    HW1 4433   0.526   4.287   2.070
 1538SOL    HW2 4434   0.390   4.204   2.106
 1539SOL     OW 4435   0.201   4.858   3.302
 1539SOL    HW1 4436   0.179   4.791   3.374
 1539SOL    HW2 4437   0.212   4.810   3.215
 1540SOL     OW 4438   1.326   4.741   3.076
 1540SOL    HW1 4439   1.344   4.689   2.993
 1540SOL    HW2 4440   1.233   4.780   3.071
 1541SOL     OW 4441   1.322   4.605   2.159
 1541SOL    HW1 4442   1.247   4.560   2.208
 1541SOL    HW2 4443   1.314   4.584   2.061
 1542SOL     OW 4444   0.086   4.970   2.848
 1542SOL    HW1 4445   0.080   5.005   2.941
 1542SOL    HW2 4446   5.083   4.974   2.805
 1543SOL     OW 4447   1.674   3.862   2.345
 1543SOL    HW1 4448   1.746   3.860   2.275
 1543SOL    HW2 4449   1.682   3.781   2.403
 1544SOL     OW 4450   1.270   4.636   2.501
 1544SOL    HW1 4451   1.350   4.581   2.527
 1544SOL    HW2 4452   1.301   4.720   2.456
 1545SOL     OW 4453   0.793   4.972   3.311
 1545SOL    HW1 4454   0.834   5.064   3.309
 1545SOL    HW2 4455   0.698   4.978   3.281
 1546SOL     OW 4456   1.839   3.882   2.831
 1546SOL    HW1 4457   1.857   3.793   2.789
 1546SOL    HW2 4458   1.751   3.917   2.798
 1547SOL     OW 4459   0.247   4.024   2.570
 1547SOL    HW1 4460   0.208   4.113   2.547
 1547SOL    HW2 4461   0.247   4.013   2.669
 1548SOL     OW 4462   1.268   0.241   1.883
 1548SOL    HW1 4463   1.238   0.182   1.958
 1548SOL    HW2 4464   1.200   0.312   1.866
 1549SOL     OW 4465   0.796   4.714   3.242
 1549SOL    HW1 4466   0.848   4.684   3.162
 1549SOL    HW2 4467   0.813   4.811   3.258
 1550SOL     OW 4468   0.909   4.652   2.119
 1550SOL    HW1 4469   0.986   4.696   2.074
 1550SOL    HW2 4470   0.941   4.570   2.167
 1551SOL     OW 4471   0.418   5.028   3.352
 1551SOL    HW1 4472   0.386   0.027   3.312
 1551SOL    HW2 4473   0.358   4.953   3.324
 1552SOL     OW 4474   1.605   4.987   3.158
 1552SOL    HW1 4475   1.665   4.971   3.237
 1552SOL    HW2 4476   1.521   5.030   3.189
 1553SOL     OW 4477   1.061   4.828   2.569
 1553SOL    HW1 4478   0.987   4.775   2.612
 1553SOL    HW2 4479   1.131   4.765   2.535
 1554SOL     OW 4480   1.023   3.957   2.853
 1554SOL    HW1 4481   1.011   3.923   2.760
 1554SOL    HW2 4482   1.035   3.880   2.915
 1555SOL     OW 4483   1.708   4.117   3.244
 1555SOL    HW1 4484   1.776   4.190   3.249
 1555SOL    HW2 4485   1.739   4.047   3.180
 1556SOL     OW 4486   0.147   4.724   3.534
 1556SOL    HW1 4487   0.090   4.783   3.592
 1556SOL    HW2 4488   0.228   4.694   3.586
 1557SOL     OW 4489   0.703   3.917   3.346
 1557SOL    HW1 4490   0.791   3.887   3.310
 1557SOL    HW2 4491   0.715   3.952   3.439
 1558SOL     OW 4492   0.064   4.066   1.917
 1558SOL    HW1 4493   5.073   4.021   1.873
 1558SOL    HW2 4494   0.108   4.127   1.851
 1559SOL     OW 4495   1.441   4.587   3.260
 1559SOL    HW1 4496   1.392   4.647   3.197
 1559SOL    HW2 4497   1.539   4.599   3.248
 1560SOL     OW 4498   0.071   3.940   2.169
 1560SOL    HW1 4499   0.044   3.986   2.084
 1560SOL    HW2 4500   0.122   3.857   2.147
 1561SOL     OW 4501   0.618   4.530   3.315
 1561SOL    HW1 4502   0.672   4.613   3.300
 1561SOL    HW2 4503   0.679   4.452   3.328
 1562SOL     OW 4504   0.725   4.268   3.536
 1562SOL    HW1 4505   0.758   4.334   3.605
 1562SOL    HW2 4506   0.720   4.177   3.577
 1563SOL     OW 4507   1.468   4.899   3.498
 1563SOL    HW1 4508   1.451   4.915   3.595
 1563SOL    HW2 4509   1.566   4.907   3.479
 1564SOL     OW 4510   1.703   4.605   3.107
 1564SOL    HW1 4511   1.682   4.512   3.076
 1564SOL    HW2 4512   1.670   4.670   3.038
 1565SOL     OW 4513   1.211   4.043   2.338
 1565SOL    HW1 4514   1.283   3.975   2.325
 1565SOL    HW2 4515   1.240   4.109   2.408
 1566SOL     OW 4516   0.610   4.458   2.501
 1566SOL    HW1 4517   0.641   4.552   2.519
 1566SOL    HW2 4518   0.540   4.459   2.430
 1567SOL     OW 4519   1.762   4.090   3.510
 1567SOL    HW1 4520   1.741   4.108   3.414
 1567SOL    HW2 4521   1.683   4.045   3.553
 1568SOL     OW 4522   1.740   4.660   3.376
 1568SOL    HW1 4523   1.760   4.757   3.392
 1568SOL    HW2 4524   1.740   4.642   3.278
 1569SOL     OW 4525   0.892   4.670   2.723
 1569SOL    HW1 4526   0.942   4.598   2.771
 1569SOL    HW2 4527   0.861   4.738   2.789
 1570SOL     OW 4528   1.126   4.757   1.954
 1570SOL    HW1 4529   1.077   4.786   1.872
 1570SOL    HW2 4530   1.189   4.682   1.931
 1571SOL     OW 4531   0.069   4.948   2.506
 1571SOL    HW1 4532   0.111   4.885   2.572
 1571SOL    HW2 4533   0.140   5.006   2.465
 1572SOL     OW 4534   1.806   3.910   3.097
 1572SOL    HW1 4535   1.834   3.819   3.127
 1572SOL    HW2 4536   1.818   3.917   2.998
 1573SOL     OW 4537   0.484   4.158   2.434
 1573SOL    HW1 4538   0.516   4.107   2.355
 1573SOL    HW2 4539   0.427   4.099   2.491
 1574SOL     OW 4540   0.338   4.288   3.130
 1574SOL    HW1 4541   0.402   4.237   3.188
 1574SOL    HW2 4542   0.342   4.251   3.037
 1575SOL     OW 4543   1.424   3.983   2.971
 1575SOL    HW1 4544   1.468   3.905   3.016
 1575SOL    HW2 4545   1.367   4.032   3.036
 1576SOL     OW 4546   1.026   3.729   3.024
 1576SOL    HW1 4547   0.957   3.662   2.995
 1576SOL    HW2 4548   1.117   3.690   3.012
 1577SOL     OW 4549   0.743   5.019   2.096
 1577SOL    HW1 4550   0.697   4.937   2.132
 1577SOL    HW2 4551   0.799   5.060   2.167
 1578SOL     OW 4552   1.327   3.761   2.028
 1578SOL    HW1 4553   1.342   3.712   1.942
 1578SOL    HW2 4554   1.241   3.730   2.069
 1579SOL     OW 4555   1.263   4.208   2.542
 1579SOL    HW1 4556   1.211   4.293   2.545
 1579SOL    HW2 4557   1.261   4.164   2.632
 1580SOL     OW 4558   1.583   3.941   2.749
 1580SOL    HW1 4559   1.511   3.959   2.817
 1580SOL    HW2 4560   1.581   4.012   2.679
 1581SOL     OW 4561   0.105   4.838   2.146
 1581SOL    HW1 4562   0.188   4.783   2.148
 1581SOL    HW2 4563   0.028   4.785   2.182
 1582SOL     OW 4564   0.205   4.384   3.861
 1582SOL    HW1 4565   0.154   4.328   3.927
 1582SOL    HW2 4566   0.239   4.327   3.787
 1583SOL     OW 4567   0.215   3.979   4.704
 1583SOL    HW1 4568   0.243   3.966   4.799
 1583SOL    HW2 4569   0.164   3.899   4.673
 1584SOL     OW 4570   5.064   4.124   4.377
 1584SOL    HW1 4571   5.030   4.127   4.471
 1584SOL    HW2 4572   0.047   4.052   4.370
 1585SOL     OW 4573   0.564   4.950   4.908
 1585SOL    HW1 4574   0.501   4.983   4.838
 1585SOL    HW2 4575   0.548   5.001   4.993
 1586SOL     OW 4576   1.529   0.128   4.420
 1586SOL    HW1 4577   1.472   0.100   4.497
 1586SOL    HW2 4578   1.477   0.122   4.335
 1587SOL     OW 4579   1.129   4.425   4.419
 1587SOL    HW1 4580   1.170   4.513   4.395
 1587SOL    HW2 4581   1.068   4.437   4.497
 1588SOL     OW 4582   1.770   4.315   3.953
 1588SOL    HW1 4583   1.751   4.322   3.854
 1588SOL    HW2 4584   1.728   4.232   3.989
 1589SOL     OW 4585   0.757   4.874   4.741
 1589SOL    HW1 4586   0.686   4.889   4.809
 1589SOL    HW2 4587   0.764   4.954   4.681
 1590SOL     OW 4588   0.694   4.720   4.387
 1590SOL    HW1 4589   0.766   4.714   4.455
 1590SOL    HW2 4590   0.617   4.772   4.425
 1591SOL     OW 4591   0.389   0.002   4.747
 1591SOL    HW1 4592   0.291   5.076   4.731
 1591SOL    HW2 4593   0.432   0.035   4.663
 1592SOL     OW 4594   1.625   4.185   4.458
 1592SOL    HW1 4595   1.564   4.210   4.384
 1592SOL    HW2 4596   1.596   4.232   4.542
 1593SOL     OW 4597   0.258   4.815   4.637
 1593SOL    HW1 4598   0.254   4.720   4.668
 1593SOL    HW2 4599   0.187   4.868   4.684
 1594SOL     OW 4600   0.562   4.718   3.863
 1594SOL    HW1 4601   0.593   4.772   3.785
 1594SOL    HW2 4602   0.612   4.747   3.945
 1595SOL     OW 4603   0.155   4.323   4.322
 1595SOL    HW1 4604   0.077   4.261   4.327
 1595SOL    HW2 4605   0.134   4.407   4.372
 1596SOL     OW 4606   1.686   4.654   4.374
 1596SOL    HW1 4607   1.768   4.610   4.340
 1596SOL    HW2 4608   1.644   4.709   4.302
 1597SOL     OW 4609   1.650   4.848   4.154
 1597SOL    HW1 4610   1.740   4.846   4.110
 1597SOL    HW2 4611   1.654   4.906   4.235
 1598SOL     OW 4612   0.816   3.722   4.246
 1598SOL    HW1 4613   0.859   3.811   4.229
 1598SOL    HW2 4614   0.716   3.733   4.244
 1599SOL     OW 4615   0.247   4.733   4.976
 1599SOL    HW1 4616   0.329   4.679   4.957
 1599SOL    HW2 4617   0.174   4.673   5.008
 1600SOL     OW 4618   1.542   4.725   3.926
 1600SOL    HW1 4619   1.467   4.665   3.952
 1600SOL    HW2 4620   1.583   4.764   4.008
 1601SOL     OW 4621   1.433   0.059   4.661
 1601SOL    HW1 4622   1.426   0.099   4.752
 1601SOL    HW2 4623   1.411   5.049   4.665
 1602SOL     OW 4624   0.589   4.432   4.001
 1602SOL    HW1 4625   0.594   4.521   3.956
 1602SOL    HW2 4626   0.512   4.432   4.065
 1603SOL     OW 4627   1.282   4.054   4.638
 1603SOL    HW1 4628   1.186   4.028   4.653
 1603SOL    HW2 4629   1.338   4.018   4.712
 1604SOL     OW 4630   1.011   4.061   4.959
 1604SOL    HW1 4631   0.992   4.137   5.020
 1604SOL    HW2 4632   0.942   4.057   4.887
 1605SOL     OW 4633   1.032   4.411   4.151
 1605SOL    HW1 4634   1.063   4.417   4.246
 1605SOL    HW2 4635   0.942   4.369   4.148
 1606SOL     OW 4636   0.109   4.549   4.482
 1606SOL    HW1 4637   0.204   4.552   4.512
 1606SOL    HW2 4638   0.049   4.541   4.562
 1607SOL     OW 4639   0.872   4.106   3.937
 1607SOL    HW1 4640   0.925   4.161   3.873
 1607SOL    HW2 4641   0.861   4.014   3.901
 1608SOL     OW 4642   1.379   4.875   4.268
 1608SOL    HW1 4643   1.460   4.853   4.212
 1608SOL    HW2 4644   1.340   4.961   4.236
 1609SOL     OW 4645   0.555   3.963   4.625
 1609SOL    HW1 4646   0.555   3.960   4.725
 1609SOL    HW2 4647   0.562   4.059   4.594
 1610SOL     OW 4648   1.815   4.751   4.599
 1610SOL    HW1 4649   1.763   4.736   4.514
 1610SOL    HW2 4650   1.752   4.751   4.677
 1611SOL     OW 4651   0.324   4.665   3.980
 1611SOL    HW1 4652   0.405   4.685   3.926
 1611SOL    HW2 4653   0.283   4.579   3.949
 1612SOL     OW 4654   1.477   4.483   4.414
 1612SOL    HW1 4655   1.480   4.416   4.489
 1612SOL    HW2 4656   1.561   4.536   4.414
 1613SOL     OW 4657   1.636   0.016   3.755
 1613SOL    HW1 4658   1.590   0.095   3.797
 1613SOL    HW2 4659   1.578   5.022   3.763
 1614SOL     OW 4660   1.403   3.812   4.149
 1614SOL    HW1 4661   1.396   3.771   4.058
 1614SOL    HW2 4662   1.500   3.829   4.170
 1615SOL     OW 4663   0.390   4.390   4.203
 1615SOL    HW1 4664   0.431   4.306   4.239
 1615SOL    HW2 4665   0.296   4.398   4.235
 1616SOL     OW 4666   0.615   3.852   3.796
 1616SOL    HW1 4667   0.686   3.790   3.830
 1616SOL    HW2 4668   0.565   3.808   3.721
 1617SOL     OW 4669   0.734   0.041   4.645
 1617SOL    HW1 4670   0.812   0.048   4.583
 1617SOL    HW2 4671   0.670   0.116   4.627
 1618SOL     OW 4672   0.917   4.221   4.630
 1618SOL    HW1 4673   0.885   4.222   4.535
 1618SOL    HW2 4674   0.961   4.133   4.649
 1619SOL     OW 4675   0.552   3.776   4.231
 1619SOL    HW1 4676   0.471   3.774   4.290
 1619SOL    HW2 4677   0.544   3.853   4.167
 1620SOL     OW 4678   1.418   4.917   3.769
 1620SOL    HW1 4679   1.472   4.849   3.820
 1620SOL    HW2 4680   1.324   4.884   3.761
 1621SOL     OW 4681   0.288   3.742   3.933
 1621SOL    HW1 4682   0.318   3.820   3.878
 1621SOL    HW2 4683   0.369   3.694   3.969
 1622SOL     OW 4684   0.948   3.973   4.207
 1622SOL    HW1 4685   0.911   4.029   4.132
 1622SOL    HW2 4686   1.046   3.990   4.216
 1623SOL     OW 4687   1.250   0.170   4.465
 1623SOL    HW1 4688   1.243   0.268   4.448
 1623SOL    HW2 4689   1.299   0.154   4.550
 1624SOL     OW 4690   0.470   4.856   4.463
 1624SOL    HW1 4691   0.400   4.851   4.535
 1624SOL    HW2 4692   0.427   4.843   4.374
 1625SOL     OW 4693   1.053   4.247   3.758
 1625SOL    HW1 4694   0.999   4.329   3.739
 1625SOL    HW2 4695   1.132   4.273   3.814
 1626SOL     OW 4696   0.579   3.930   4.902
 1626SOL    HW1 4697   0.616   3.843   4.934
 1626SOL    HW2 4698   0.485   3.941   4.935
 1627SOL     OW 4699   0.868   4.193   4.368
 1627SOL    HW1 4700   0.827   4.240   4.289
 1627SOL    HW2 4701   0.906   4.105   4.338
 1628SOL     OW 4702   1.054   3.758   4.491
 1628SOL    HW1 4703   0.984   3.778   4.423
 1628SOL    HW2 4704   1.025   3.681   4.548
 1629SOL     OW 4705   1.440   4.863   4.613
 1629SOL    HW1 4706   1.376   4.786   4.604
 1629SOL    HW2 4707   1.463   4.896   4.521
 1630SOL     OW 4708   1.501   4.312   4.674
 1630SOL    HW1 4709   1.430   4.241   4.671
 1630SOL    HW2 4710   1.547   4.309   4.763
 1631SOL     OW 4711   1.830   4.529   4.120
 1631SOL    HW1 4712   1.888   4.483   4.187
 1631SOL    HW2 4713   1.817   4.470   4.040
 1632SOL     OW 4714   1.654   4.983   4.389
 1632SOL    HW1 4715   1.754   4.983   4.400
 1632SOL    HW2 4716   1.618   5.072   4.417
 1633SOL     OW 4717   1.416   4.316   3.792
 1633SOL    HW1 4718   1.365   4.282   3.871
 1633SOL    HW2 4719   1.514   4.307   3.808
 1634SOL     OW 4720   0.545   3.957   4.030
 1634SOL    HW1 4721   0.569   3.912   3.944
 1634SOL    HW2 4722   0.507   4.048   4.010
 1635SOL     OW 4723   1.631   4.796   4.801
 1635SOL    HW1 4724   1.609   4.841   4.888
 1635SOL    HW2 4725   1.558   4.815   4.735
 1636SOL     OW 4726   0.700   4.790   4.081
 1636SOL    HW1 4727   0.701   4.782   4.180
 1636SOL    HW2 4728   0.782   4.746   4.044
 1637SOL     OW 4729   0.455   4.542   4.983
 1637SOL    HW1 4730   0.515   4.556   5.062
 1637SOL    HW2 4731   0.387   4.472   5.006
 1638SOL     OW 4732   1.272   4.139   4.960
 1638SOL    HW1 4733   1.289   4.181   5.049
 1638SOL    HW2 4734   1.177   4.109   4.954
 1639SOL     OW 4735   0.364   4.806   4.221
 1639SOL    HW1 4736   0.402   4.887   4.177
 1639SOL    HW2 4737   0.356   4.732   4.153
 1640SOL     OW 4738   0.532   4.272   4.583
 1640SOL    HW1 4739   0.560   4.311   4.495
 1640SOL    HW2 4740   0.595   4.303   4.655
 1641SOL     OW 4741   1.584   4.345   4.199
 1641SOL    HW1 4742   1.523   4.402   4.254
 1641SOL    HW2 4743   1.648   4.403   4.150
 1642SOL     OW 4744   0.571   4.607   4.746
 1642SOL    HW1 4745   0.590   4.705   4.744
 1642SOL    HW2 4746   0.527   4.583   4.832
 1643SOL     OW 4747   1.374   4.566   4.721
 1643SOL    HW1 4748   1.287   4.551   4.675
 1643SOL    HW2 4749   1.431   4.485   4.712
 1644SOL     OW 4750   1.231   4.242   3.991
 1644SOL    HW1 4751   1.249   4.164   4.051
 1644SOL    HW2 4752   1.161   4.301   4.032
 1645SOL     OW 4753   0.297   3.917   4.958
 1645SOL    HW1 4754   0.268   3.944   5.050
 1645SOL    HW2 4755   0.287   3.818   4.948
 1646SOL     OW 4756   0.058   5.060   4.977
 1646SOL    HW1 4757   0.108   4.992   5.032
 1646SOL    HW2 4758   0.005   0.032   5.038
 1647SOL     OW 4759   0.705   4.360   4.780
 1647SOL    HW1 4760   0.786   4.331   4.730
 1647SOL    HW2 4761   0.680   4.453   4.752
 1648SOL     OW 4762   0.301   3.778   4.357
 1648SOL    HW1 4763   0.274   3.873   4.370
 1648SOL    HW2 4764   0.324   3.737   4.445
 1649SOL     OW 4765   1.619   4.102   4.081
 1649SOL    HW1 4766   1.636   4.026   4.144
 1649SOL    HW2 4767   1.601   4.185   4.134
 1650SOL     OW 4768   1.009   4.466   4.704
 1650SOL    HW1 4769   0.989   4.479   4.801
 1650SOL    HW2 4770   0.992   4.371   4.679
 1651SOL     OW 4771   1.519   3.976   3.862
 1651SOL    HW1 4772   1.447   3.913   3.891
 1651SOL    HW2 4773   1.557   4.021   3.942
 1652SOL     OW 4774   1.312   4.559   3.761
 1652SOL    HW1 4775   1.356   4.470   3.772
 1652SOL    HW2 4776   1.319   4.587   3.665
 1653SOL     OW 4777   0.307   4.545   4.670
 1653SOL    HW1 4778   0.405   4.565   4.675
 1653SOL    HW2 4779   0.291   4.450   4.699
 1654SOL     OW 4780   0.299   4.247   4.723
 1654SOL    HW1 4781   0.270   4.152   4.717
 1654SOL    HW2 4782   0.380   4.262   4.667
 1655SOL     OW 4783   1.181   3.966   0.130
 1655SOL    HW1 4784   1.152   4.045   0.184
 1655SOL    HW2 4785   1.134   3.968   0.041
 1656SOL     OW 4786   4.975   5.043   3.891
 1656SOL    HW1 4787   4.907   5.045   3.964
 1656SOL    HW2 4788   5.065   5.022   3.929
 1657SOL     OW 4789   0.950   4.500   4.975
 1657SOL    HW1 4790   1.035   4.537   5.013
 1657SOL    HW2 4791   0.872   4.544   5.019
 1658SOL     OW 4792   0.078   4.302   4.861
 1658SOL    HW1 4793   0.163   4.280   4.814
 1658SOL    HW2 4794   0.097   4.326   4.956
 1659SOL     OW 4795   0.791   4.287   4.123
 1659SOL    HW1 4796   0.809   4.219   4.051
 1659SOL    HW2 4797   0.714   4.344   4.095
 1660SOL     OW 4798   1.641   4.328   4.915
 1660SOL    HW1 4799   1.629   4.265   4.991
 1660SOL    HW2 4800   1.731   4.314   4.874
 1661SOL     OW 4801   0.692   4.173   4.983
 1661SOL    HW1 4802   0.647   4.092   4.944
 1661SOL    HW2 4803   0.686   4.249   4.918
 1662SOL     OW 4804   0.467   4.202   3.914
 1662SOL    HW1 4805   0.519   4.285   3.933
 1662SOL    HW2 4806   0.383   4.203   3.967
 1663SOL     OW 4807   1.299   4.732   4.925
 1663SOL    HW1 4808   1.340   4.665   4.864
 1663SOL    HW2 4809   1.282   4.817   4.875
 1664SOL     OW 4810   1.320   4.593   4.029
 1664SOL    HW1 4811   1.240   4.553   4.074
 1664SOL    HW2 4812   1.309   4.586   3.930
 1665SOL     OW 4813   0.064   4.978   4.721
 1665SOL    HW1 4814   0.059   5.020   4.811
 1665SOL    HW2 4815   5.073   5.007   4.666
 1666SOL     OW 4816   1.665   3.843   4.207
 1666SOL    HW1 4817   1.749   3.846   4.152
 1666SOL    HW2 4818   1.664   3.760   4.262
 1667SOL     OW 4819   1.266   4.662   4.384
 1667SOL    HW1 4820   1.343   4.599   4.391
 1667SOL    HW2 4821   1.296   4.746   4.337
 1668SOL     OW 4822   0.812   4.939   0.037
 1668SOL    HW1 4823   0.822   4.968   0.132
 1668SOL    HW2 4824   0.735   4.987   5.082
 1669SOL     OW 4825   1.838   3.897   4.706
 1669SOL    HW1 4826   1.856   3.804   4.675
 1669SOL    HW2 4827   1.750   3.928   4.670
 1670SOL     OW 4828   0.251   4.039   4.430
 1670SOL    HW1 4829   0.240   4.136   4.406
 1670SOL    HW2 4830   0.248   4.030   4.530
 1671SOL     OW 4831   1.274   0.259   3.762
 1671SOL    HW1 4832   1.240   0.181   3.814
 1671SOL    HW2 4833   1.206   0.286   3.694
 1672SOL     OW 4834   0.771   4.682   5.069
 1672SOL    HW1 4835   0.775   4.708   4.972
 1672SOL    HW2 4836   0.802   4.759   0.039
 1673SOL     OW 4837   0.908   4.648   3.980
 1673SOL    HW1 4838   0.986   4.690   3.934
 1673SOL    HW2 4839   0.939   4.572   4.036
 1674SOL     OW 4840   1.049   4.848   4.423
 1674SOL    HW1 4841   0.973   4.801   4.469
 1674SOL    HW2 4842   1.121   4.783   4.402
 1675SOL     OW 4843   1.033   3.949   4.686
 1675SOL    HW1 4844   1.038   3.890   4.605
 1675SOL    HW2 4845   1.042   3.893   4.768
 1676SOL     OW 4846   1.743   4.139   5.080
 1676SOL    HW1 4847   1.797   4.160   0.076
 1676SOL    HW2 4848   1.762   4.046   5.051
 1677SOL     OW 4849   0.069   4.070   3.766
 1677SOL    HW1 4850   5.070   4.037   3.727
 1677SOL    HW2 4851   0.114   4.131   3.702
 1678SOL     OW 4852   0.084   3.942   4.035
 1678SOL    HW1 4853   0.048   3.982   3.951
 1678SOL    HW2 4854   0.124   3.853   4.015
 1679SOL     OW 4855   1.483   4.972   0.338
 1679SOL    HW1 4856   1.554   4.933   0.396
 1679SOL    HW2 4857   1.475   4.918   0.254
 1680SOL     OW 4858   1.656   4.590   4.978
 1680SOL    HW1 4859   1.641   4.495   4.955
 1680SOL    HW2 4860   1.644   4.647   4.897
 1681SOL     OW 4861   1.225   4.045   4.204
 1681SOL    HW1 4862   1.284   3.967   4.184
 1681SOL    HW2 4863   1.264   4.098   4.278
 1682SOL     OW 4864   0.603   4.453   4.358
 1682SOL    HW1 4865   0.641   4.546   4.368
 1682SOL    HW2 4866   0.526   4.455   4.294
 1683SOL     OW 4867   1.787   4.574   0.133
 1683SOL    HW1 4868   1.801   4.667   0.168
 1683SOL    HW2 4869   1.738   4.578   0.046
 1684SOL     OW 4870   0.890   4.684   4.586
 1684SOL    HW1 4871   0.922   4.599   4.628
 1684SOL    HW2 4872   0.850   4.743   4.656
 1685SOL     OW 4873   1.127   4.754   3.818
 1685SOL    HW1 4874   1.077   4.785   3.737
 1685SOL    HW2 4875   1.178   4.671   3.796
 1686SOL     OW 4876   0.090   4.950   4.373
 1686SOL    HW1 4877   0.136   4.894   4.441
 1686SOL    HW2 4878   0.125   4.929   4.282
 1687SOL     OW 4879   1.827   3.902   4.978
 1687SOL    HW1 4880   1.849   3.804   4.978
 1687SOL    HW2 4881   1.823   3.936   4.884
 1688SOL     OW 4882   0.478   4.155   4.287
 1688SOL    HW1 4883   0.524   4.106   4.213
 1688SOL    HW2 4884   0.437   4.089   4.350
 1689SOL     OW 4885   1.433   3.969   4.838
 1689SOL    HW1 4886   1.479   3.902   4.895
 1689SOL    HW2 4887   1.377   4.029   4.895
 1690SOL     OW 4888   1.054   3.741   4.874
 1690SOL    HW1 4889   1.001   3.691   4.806
 1690SOL    HW2 4890   1.139   3.692   4.893
 1691SOL     OW 4891   0.745   5.039   3.955
 1691SOL    HW1 4892   0.705   4.956   3.994
 1691SOL    HW2 4893   0.798   0.000   4.025
 1692SOL     OW 4894   1.323   3.760   3.895
 1692SOL    HW1 4895   1.351   3.703   3.818
 1692SOL    HW2 4896   1.234   3.728   3.929
 1693SOL     OW 4897   1.306   4.199   4.418
 1693SOL    HW1 4898   1.241   4.275   4.416
 1693SOL    HW2 4899   1.292   4.146   4.502
 1694SOL     OW 4900   1.600   3.965   4.621
 1694SOL    HW1 4901   1.525   3.972   4.686
 1694SOL    HW2 4902   1.585   4.029   4.545
 1695SOL     OW 4903   0.104   4.823   4.007
 1695SOL    HW1 4904   0.191   4.773   4.005
 1695SOL    HW2 4905   0.030   4.761   4.032
 1696SOL     OW 4906   2.069   0.621   0.101
 1696SOL    HW1 4907   1.983   0.631   0.152
 1696SOL    HW2 4908   2.064   0.540   0.044
 1697SOL     OW 4909   2.090   0.295   1.009
 1697SOL    HW1 4910   2.117   0.279   1.104
 1697SOL    HW2 4911   2.002   0.250   0.992
 1698SOL     OW 4912   1.883   0.405   0.641
 1698SOL    HW1 4913   1.789   0.419   0.673
 1698SOL    HW2 4914   1.882   0.345   0.561
 1699SOL     OW 4915   2.425   1.299   1.194
 1699SOL    HW1 4916   2.330   1.286   1.166
 1699SOL    HW2 4917   2.441   1.395   1.214
 1700SOL     OW 4918   3.416   1.530   0.722
 1700SOL    HW1 4919   3.382   1.496   0.810
 1700SOL    HW2 4920   3.344   1.519   0.653
 1701SOL     OW 4921   2.995   0.705   0.696
 1701SOL    HW1 4922   3.033   0.795   0.676
 1701SOL    HW2 4923   2.961   0.703   0.790
 1702SOL     OW 4924   3.643   0.574   0.218
 1702SOL    HW1 4925   3.580   0.578   0.141
 1702SOL    HW2 4926   3.597   0.531   0.296
 1703SOL     OW 4927   2.598   1.170   1.022
 1703SOL    HW1 4928   2.530   1.202   1.088
 1703SOL    HW2 4929   2.639   1.248   0.975
 1704SOL     OW 4930   2.743   0.755   1.795
 1704SOL    HW1 4931   2.717   0.813   1.872
 1704SOL    HW2 4932   2.765   0.813   1.716
 1705SOL     OW 4933   2.553   1.030   0.646
 1705SOL    HW1 4934   2.619   1.003   0.716
 1705SOL    HW2 4935   2.474   1.074   0.688
 1706SOL     OW 4936   2.566   1.166   1.802
 1706SOL    HW1 4937   2.613   1.252   1.824
 1706SOL    HW2 4938   2.473   1.187   1.772
 1707SOL     OW 4939   2.177   1.428   1.083
 1707SOL    HW1 4940   2.109   1.370   1.039
 1707SOL    HW2 4941   2.230   1.477   1.013
 1708SOL     OW 4942   3.337   1.504   1.383
 1708SOL    HW1 4943   3.398   1.583   1.388
 1708SOL    HW2 4944   3.266   1.512   1.452
 1709SOL     OW 4945   2.300   0.393   1.524
 1709SOL    HW1 4946   2.386   0.353   1.494
 1709SOL    HW2 4947   2.227   0.325   1.515
 1710SOL     OW 4948   3.478   0.455   0.706
 1710SOL    HW1 4949   3.399   0.461   0.645
 1710SOL    HW2 4950   3.485   0.538   0.761
 1711SOL     OW 4951   2.118   1.722   0.483
 1711SOL    HW1 4952   2.131   1.808   0.532
 1711SOL    HW2 4953   2.176   1.721   0.402
 1712SOL     OW 4954   2.999   1.347   1.685
 1712SOL    HW1 4955   3.052   1.346   1.769
 1712SOL    HW2 4956   2.944   1.264   1.679
 1713SOL     OW 4957   2.124   1.451   0.525
 1713SOL    HW1 4958   2.121   1.551   0.522
 1713SOL    HW2 4959   2.059   1.418   0.593
 1714SOL     OW 4960   2.125   1.069   0.910
 1714SOL    HW1 4961   2.143   0.981   0.953
 1714SOL    HW2 4962   2.074   1.128   0.973
 1715SOL     OW 4963   2.443   1.803   1.391
 1715SOL    HW1 4964   2.375   1.772   1.457
 1715SOL    HW2 4965   2.486   1.887   1.425
 1716SOL     OW 4966   2.437   0.993   0.151
 1716SOL    HW1 4967   2.496   1.025   0.077
 1716SOL    HW2 4968   2.469   1.033   0.237
 1717SOL     OW 4969   3.457   0.122   1.492
 1717SOL    HW1 4970   3.439   0.187   1.419
 1717SOL    HW2 4971   3.450   0.168   1.580
 1718SOL     OW 4972   1.971   0.663   0.561
 1718SOL    HW1 4973   1.951   0.569   0.590
 1718SOL    HW2 4974   1.973   0.723   0.641
 1719SOL     OW 4975   3.722   1.734   0.345
 1719SOL    HW1 4976   3.777   1.705   0.423
 1719SOL    HW2 4977   3.749   1.827   0.319
 1720SOL     OW 4978   1.891   1.550   0.132
 1720SOL    HW1 4979   1.806   1.500   0.121
 1720SOL    HW2 4980   1.881   1.617   0.206
 1721SOL     OW 4981   3.544   0.896   0.627
 1721SOL    HW1 4982   3.623   0.847   0.590
 1721SOL    HW2 4983   3.525   0.977   0.570
 1722SOL     OW 4984   3.527   1.122   0.481
 1722SOL    HW1 4985   3.601   1.137   0.416
 1722SOL    HW2 4986   3.535   1.187   0.556
 1723SOL     OW 4987   1.990   0.752   1.579
 1723SOL    HW1 4988   2.086   0.772   1.560
 1723SOL    HW2 4989   1.952   0.826   1.635
 1724SOL     OW 4990   2.439   1.397   0.744
 1724SOL    HW1 4991   2.405   1.304   0.754
 1724SOL    HW2 4992   2.438   1.423   0.648
 1725SOL     OW 4993   3.158   1.237   1.424
 1725SOL    HW1 4994   3.175   1.165   1.356
 1725SOL    HW2 4995   3.220   1.225   1.501
 1726SOL     OW 4996   2.681   0.025   0.550
 1726SOL    HW1 4997   2.709   0.116   0.518
 1726SOL    HW2 4998   2.582   0.016   0.541
 1727SOL     OW 4999   2.039   0.968   1.241
 1727SOL    HW1 5000   2.132   0.934   1.230
 1727SOL    HW2 5001   1.974   0.900   1.206
 1728SOL     OW 5002   3.366   1.006   0.245
 1728SOL    HW1 5003   3.289   0.952   0.279
 1728SOL    HW2 5004   3.451   0.974   0.287
 1729SOL     OW 5005   3.034   1.804   1.604
 1729SOL    HW1 5006   3.042   1.881   1.540
 1729SOL    HW2 5007   3.057   1.719   1.557
 1730SOL     OW 5008   2.177   0.242   1.792
 1730SOL    HW1 5009   2.231   0.327   1.799
 1730SOL    HW2 5010   2.085   0.259   1.826
 1731SOL     OW 5011   3.318   1.421   0.955
 1731SOL    HW1 5012   3.259   1.445   1.032
 1731SOL    HW2 5013   3.300   1.327   0.927
 1732SOL     OW 5014   3.517   1.734   0.582
 1732SOL    HW1 5015   3.498   1.697   0.491
 1732SOL    HW2 5016   3.489   1.668   0.652
 1733SOL     OW 5017   2.453   0.735   0.270
 1733SOL    HW1 5018   2.456   0.825   0.227
 1733SOL    HW2 5019   2.387   0.735   0.345
 1734SOL     OW 5020   3.139   0.373   0.951
 1734SOL    HW1 5021   3.047   0.336   0.966
 1734SOL    HW2 5022   3.205   0.323   1.008
 1735SOL     OW 5023   3.440   1.642   0.331
 1735SOL    HW1 5024   3.530   1.680   0.312
 1735SOL    HW2 5025   3.401   1.603   0.247
 1736SOL     OW 5026   2.653   0.625   1.448
 1736SOL    HW1 5027   2.647   0.593   1.543
 1736SOL    HW2 5028   2.610   0.559   1.387
 1737SOL     OW 5029   3.255   0.464   1.680
 1737SOL    HW1 5030   3.247   0.528   1.757
 1737SOL    HW2 5031   3.306   0.383   1.710
 1738SOL     OW 5032   2.820   0.892   1.577
 1738SOL    HW1 5033   2.870   0.811   1.548
 1738SOL    HW2 5034   2.772   0.931   1.498
 1739SOL     OW 5035   2.850   0.412   1.222
 1739SOL    HW1 5036   2.775   0.445   1.279
 1739SOL    HW2 5037   2.812   0.356   1.148
 1740SOL     OW 5038   2.904   0.685   0.419
 1740SOL    HW1 5039   2.920   0.694   0.517
 1740SOL    HW2 5040   2.818   0.638   0.403
 1741SOL     OW 5041   1.983   0.836   0.776
 1741SOL    HW1 5042   2.062   0.822   0.836
 1741SOL    HW2 5043   1.938   0.923   0.800
 1742SOL     OW 5044   1.974   1.852   1.573
 1742SOL    HW1 5045   1.993   1.823   1.667
 1742SOL    HW2 5046   1.878   1.834   1.551
 1743SOL     OW 5047   2.757   0.367   0.238
 1743SOL    HW1 5048   2.799   0.435   0.178
 1743SOL    HW2 5049   2.740   0.283   0.187
 1744SOL     OW 5050   3.581   0.584   1.820
 1744SOL    HW1 5051   3.536   0.664   1.778
 1744SOL    HW2 5052   3.611   0.521   1.748
 1745SOL     OW 5053   3.241   1.172   0.570
 1745SOL    HW1 5054   3.325   1.169   0.517
 1745SOL    HW2 5055   3.175   1.233   0.524
 1746SOL     OW 5056   2.393   0.225   0.901
 1746SOL    HW1 5057   2.396   0.246   0.999
 1746SOL    HW2 5058   2.377   0.309   0.850
 1747SOL     OW 5059   2.842   1.435   0.504
 1747SOL    HW1 5060   2.809   1.510   0.446
 1747SOL    HW2 5061   2.859   1.470   0.596
 1748SOL     OW 5062   2.209   1.824   0.855
 1748SOL    HW1 5063   2.258   1.739   0.873
 1748SOL    HW2 5064   2.264   1.901   0.887
 1749SOL     OW 5065   3.656   1.077   0.890
 1749SOL    HW1 5066   3.620   1.071   0.796
 1749SOL    HW2 5067   3.581   1.063   0.955
 1750SOL     OW 5068   3.079   1.551   1.498
 1750SOL    HW1 5069   3.063   1.486   1.572
 1750SOL    HW2 5070   3.037   1.517   1.414
 1751SOL     OW 5071   2.173   0.955   0.253
 1751SOL    HW1 5072   2.260   0.970   0.207
 1751SOL    HW2 5073   2.143   0.861   0.237
 1752SOL     OW 5074   3.330   0.753   0.725
 1752SOL    HW1 5075   3.329   0.716   0.818
 1752SOL    HW2 5076   3.413   0.808   0.712
 1753SOL     OW 5077   2.324   1.274   1.715
 1753SOL    HW1 5078   2.291   1.278   1.620
 1753SOL    HW2 5079   2.245   1.279   1.777
 1754SOL     OW 5080   2.912   1.779   0.221
 1754SOL    HW1 5081   2.887   1.727   0.303
 1754SOL    HW2 5082   2.998   1.742   0.183
 1755SOL     OW 5083   2.034   0.305   1.492
 1755SOL    HW1 5084   1.971   0.382   1.492
 1755SOL    HW2 5085   1.991   0.226   1.537
 1756SOL     OW 5086   3.518   1.390   0.064
 1756SOL    HW1 5087   3.443   1.454   0.045
 1756SOL    HW2 5088   3.482   1.297   0.068
 1757SOL     OW 5089   2.314   1.747   0.288
 1757SOL    HW1 5090   2.361   1.800   0.359
 1757SOL    HW2 5091   2.377   1.680   0.250
 1758SOL     OW 5092   3.283   0.122   0.458
 1758SOL    HW1 5093   3.261   0.041   0.403
 1758SOL    HW2 5094   3.377   0.150   0.439
 1759SOL     OW 5095   2.107   1.791   1.213
 1759SOL    HW1 5096   2.167   1.728   1.262
 1759SOL    HW2 5097   2.086   1.753   1.123
 1760SOL     OW 5098   2.826   1.704   0.896
 1760SOL    HW1 5099   2.910   1.658   0.926
 1760SOL    HW2 5100   2.785   1.652   0.821
 1761SOL     OW 5101   2.227   0.679   0.449
 1761SOL    HW1 5102   2.254   0.583   0.460
 1761SOL    HW2 5103   2.136   0.693   0.487
 1762SOL     OW 5104   3.403   0.237   1.728
 1762SOL    HW1 5105   3.411   0.247   1.828
 1762SOL    HW2 5106   3.348   0.156   1.707
 1763SOL     OW 5107   2.465   0.117   0.085
 1763SOL    HW1 5108   2.562   0.115   0.109
 1763SOL    HW2 5109   2.452   0.175   0.005
 1764SOL     OW 5110   2.627   0.273   1.761
 1764SOL    HW1 5111   2.709   0.219   1.740
 1764SOL    HW2 5112   2.582   0.235   1.842
 1765SOL     OW 5113   2.762   1.535   1.202
 1765SOL    HW1 5114   2.746   1.509   1.107
 1765SOL    HW2 5115   2.825   1.471   1.244
 1766SOL     OW 5116   3.193   0.598   1.452
 1766SOL    HW1 5117   3.235   0.555   1.532
 1766SOL    HW2 5118   3.240   0.684   1.432
 1767SOL     OW 5119   2.669   1.409   0.923
 1767SOL    HW1 5120   2.761   1.400   0.883
 1767SOL    HW2 5121   2.601   1.406   0.850
 1768SOL     OW 5122   2.790   0.494   0.891
 1768SOL    HW1 5123   2.774   0.493   0.792
 1768SOL    HW2 5124   2.816   0.402   0.922
 1769SOL     OW 5125   2.417   0.051   0.480
 1769SOL    HW1 5126   2.335   0.037   0.535
 1769SOL    HW2 5127   2.404   0.131   0.421
 1770SOL     OW 5128   3.323   1.168   0.022
 1770SOL    HW1 5129   3.341   1.084   0.074
 1770SOL    HW2 5130   3.275   1.233   0.080
 1771SOL     OW 5131   2.171   0.066   0.174
 1771SOL    HW1 5132   2.265   0.099   0.179
 1771SOL    HW2 5133   2.170   5.053   0.183
 1772SOL     OW 5134   2.841   0.257   0.479
 1772SOL    HW1 5135   2.808   0.301   0.396
 1772SOL    HW2 5136   2.941   0.263   0.483
 1773SOL     OW 5137   2.946   0.683   1.474
 1773SOL    HW1 5138   2.881   0.607   1.471
 1773SOL    HW2 5139   3.039   0.648   1.471
 1774SOL     OW 5140   3.095   1.582   0.776
 1774SOL    HW1 5141   3.098   1.649   0.702
 1774SOL    HW2 5142   3.167   1.602   0.842
 1775SOL     OW 5143   2.327   1.149   0.735
 1775SOL    HW1 5144   2.256   1.119   0.798
 1775SOL    HW2 5145   2.292   1.143   0.641
 1776SOL     OW 5146   3.102   1.811   0.607
 1776SOL    HW1 5147   3.167   1.872   0.562
 1776SOL    HW2 5148   3.051   1.862   0.676
 1777SOL     OW 5149   2.898   0.547   0.100
 1777SOL    HW1 5150   2.885   0.614   0.027
 1777SOL    HW2 5151   2.984   0.565   0.148
 1778SOL     OW 5152   1.899   0.564   1.388
 1778SOL    HW1 5153   1.996   0.558   1.365
 1778SOL    HW2 5154   1.884   0.638   1.453
 1779SOL     OW 5155   2.402   0.255   1.177
 1779SOL    HW1 5156   2.470   0.195   1.219
 1779SOL    HW2 5157   2.313   0.238   1.218
 1780SOL     OW 5158   2.754   0.455   0.635
 1780SOL    HW1 5159   2.684   0.507   0.588
 1780SOL    HW2 5160   2.782   0.377   0.579
 1781SOL     OW 5161   2.833   0.020   0.777
 1781SOL    HW1 5162   2.787   0.029   0.689
 1781SOL    HW2 5163   2.893   5.027   0.776
 1782SOL     OW 5164   3.273   1.156   0.872
 1782SOL    HW1 5165   3.190   1.105   0.896
 1782SOL    HW2 5166   3.283   1.157   0.772
 1783SOL     OW 5167   3.332   0.616   0.975
 1783SOL    HW1 5168   3.269   0.538   0.978
 1783SOL    HW2 5169   3.403   0.604   1.044
 1784SOL     OW 5170   3.704   0.848   0.393
 1784SOL    HW1 5171   3.758   0.771   0.426
 1784SOL    HW2 5172   3.684   0.835   0.296
 1785SOL     OW 5173   2.346   1.393   0.141
 1785SOL    HW1 5174   2.272   1.377   0.207
 1785SOL    HW2 5175   2.307   1.430   0.056
 1786SOL     OW 5176   3.551   1.296   0.679
 1786SOL    HW1 5177   3.651   1.307   0.676
 1786SOL    HW2 5178   3.508   1.385   0.690
 1787SOL     OW 5179   3.256   0.577   0.082
 1787SOL    HW1 5180   3.210   0.563   0.170
 1787SOL    HW2 5181   3.317   0.499   0.064
 1788SOL     OW 5182   2.388   0.255   0.302
 1788SOL    HW1 5183   2.428   0.204   0.226
 1788SOL    HW2 5184   2.360   0.346   0.270
 1789SOL     OW 5185   3.599   1.231   1.567
 1789SOL    HW1 5186   3.690   1.191   1.577
 1789SOL    HW2 5187   3.604   1.329   1.585
 1790SOL     OW 5188   2.923   1.356   1.349
 1790SOL    HW1 5189   2.838   1.329   1.393
 1790SOL    HW2 5190   3.000   1.309   1.392
 1791SOL     OW 5191   3.492   1.642   1.639
 1791SOL    HW1 5192   3.485   1.678   1.546
 1791SOL    HW2 5193   3.569   1.578   1.644
 1792SOL     OW 5194   2.979   1.224   1.105
 1792SOL    HW1 5195   2.927   1.257   1.184
 1792SOL    HW2 5196   2.950   1.273   1.023
 1793SOL     OW 5197   3.445   1.081   1.061
 1793SOL    HW1 5198   3.458   1.151   1.131
 1793SOL    HW2 5199   3.381   1.114   0.992
 1794SOL     OW 5200   2.777   0.130   1.388
 1794SOL    HW1 5201   2.805   0.092   1.300
 1794SOL    HW2 5202   2.857   0.152   1.443
 1795SOL     OW 5203   2.847   1.113   1.736
 1795SOL    HW1 5204   2.755   1.138   1.767
 1795SOL    HW2 5205   2.841   1.038   1.670
 1796SOL     OW 5206   2.597   1.089   0.381
 1796SOL    HW1 5207   2.577   1.070   0.477
 1796SOL    HW2 5208   2.668   1.027   0.349
 1797SOL     OW 5209   2.289   0.802   1.256
 1797SOL    HW1 5210   2.360   0.813   1.325
 1797SOL    HW2 5211   2.244   0.713   1.268
 1798SOL     OW 5212   3.121   0.401   1.275
 1798SOL    HW1 5213   3.143   0.478   1.335
 1798SOL    HW2 5214   3.028   0.411   1.240
 1799SOL     OW 5215   1.945   1.570   1.335
 1799SOL    HW1 5216   1.937   1.663   1.298
 1799SOL    HW2 5217   2.041   1.546   1.344
 1800SOL     OW 5218   2.224   1.137   0.486
 1800SOL    HW1 5219   2.237   1.219   0.431
 1800SOL    HW2 5220   2.192   1.062   0.427
 1801SOL     OW 5221   2.398   0.543   0.848
 1801SOL    HW1 5222   2.413   0.609   0.774
 1801SOL    HW2 5223   2.469   0.553   0.917
 1802SOL     OW 5224   3.074   1.327   0.417
 1802SOL    HW1 5225   3.130   1.408   0.433
 1802SOL    HW2 5226   2.981   1.344   0.450
 1803SOL     OW 5227   3.154   1.460   1.170
 1803SOL    HW1 5228   3.213   1.471   1.250
 1803SOL    HW2 5229   3.103   1.374   1.178
 1804SOL     OW 5230   3.434   0.631   0.447
 1804SOL    HW1 5231   3.378   0.672   0.519
 1804SOL    HW2 5232   3.474   0.703   0.391
 1805SOL     OW 5233   2.212   1.511   1.324
 1805SOL    HW1 5234   2.192   1.477   1.232
 1805SOL    HW2 5235   2.309   1.535   1.331
 1806SOL     OW 5236   2.289   0.721   1.594
 1806SOL    HW1 5237   2.359   0.772   1.545
 1806SOL    HW2 5238   2.316   0.625   1.600
 1807SOL     OW 5239   3.478   0.779   1.674
 1807SOL    HW1 5240   3.390   0.824   1.686
 1807SOL    HW2 5241   3.526   0.819   1.596
 1808SOL     OW 5242   2.848   0.132   1.702
 1808SOL    HW1 5243   2.915   0.199   1.671
 1808SOL    HW2 5244   2.884   0.040   1.685
 1809SOL     OW 5245   2.342   0.022   1.762
 1809SOL    HW1 5246   2.317   5.063   1.676
 1809SOL    HW2 5247   2.279   0.097   1.779
 1810SOL     OW 5248   2.461   0.870   1.050
 1810SOL    HW1 5249   2.485   0.967   1.040
 1810SOL    HW2 5250   2.396   0.860   1.126
 1811SOL     OW 5251   3.188   0.841   1.042
 1811SOL    HW1 5252   3.108   0.823   0.984
 1811SOL    HW2 5253   3.251   0.763   1.036
 1812SOL     OW 5254   3.092   0.513   0.289
 1812SOL    HW1 5255   3.112   0.434   0.347
 1812SOL    HW2 5256   3.035   0.578   0.339
 1813SOL     OW 5257   2.156   0.209   1.270
 1813SOL    HW1 5258   2.105   0.241   1.350
 1813SOL    HW2 5259   2.127   0.117   1.246
 1814SOL     OW 5260   1.896   1.301   1.289
 1814SOL    HW1 5261   1.921   1.237   1.361
 1814SOL    HW2 5262   1.901   1.395   1.324
 1815SOL     OW 5263   2.568   0.602   1.042
 1815SOL    HW1 5264   2.656   0.582   0.999
 1815SOL    HW2 5265   2.551   0.701   1.038
 1816SOL     OW 5266   3.634   0.960   1.852
 1816SOL    HW1 5267   3.587   0.917   1.774
 1816SOL    HW2 5268   3.571   0.969   1.928
 1817SOL     OW 5269   2.175   0.034   0.600
 1817SOL    HW1 5270   2.147   0.126   0.628
 1817SOL    HW2 5271   2.218   5.074   0.677
 1818SOL     OW 5272   3.468   0.388   0.345
 1818SOL    HW1 5273   3.505   0.318   0.406
 1818SOL    HW2 5274   3.448   0.471   0.398
 1819SOL     OW 5275   2.919   0.735   0.970
 1819SOL    HW1 5276   2.901   0.760   1.065
 1819SOL    HW2 5277   2.882   0.644   0.951
 1820SOL     OW 5278   2.837   1.560   1.693
 1820SOL    HW1 5279   2.818   1.608   1.607
 1820SOL    HW2 5280   2.883   1.474   1.673
 1821SOL     OW 5281   3.708   1.488   1.599
 1821SOL    HW1 5282   3.718   1.514   1.503
 1821SOL    HW2 5283   3.791   1.512   1.649
 1822SOL     OW 5284   2.213   0.899   1.789
 1822SOL    HW1 5285   2.289   0.918   1.852
 1822SOL    HW2 5286   2.238   0.823   1.729
 1823SOL     OW 5287   3.359   0.247   0.133
 1823SOL    HW1 5288   3.281   0.198   0.171
 1823SOL    HW2 5289   3.404   0.299   0.204
 1824SOL     OW 5290   3.168   0.833   0.039
 1824SOL    HW1 5291   3.214   0.744   0.037
 1824SOL    HW2 5292   3.185   0.882   5.040
 1825SOL     OW 5293   2.934   1.369   0.870
 1825SOL    HW1 5294   2.939   1.288   0.811
 1825SOL    HW2 5295   2.998   1.438   0.836
 1826SOL     OW 5296   2.188   0.804   0.964
 1826SOL    HW1 5297   2.287   0.813   0.957
 1826SOL    HW2 5298   2.165   0.709   0.985
 1827SOL     OW 5299   2.186   0.539   1.005
 1827SOL    HW1 5300   2.147   0.447   0.997
 1827SOL    HW2 5301   2.266   0.546   0.946
 1828SOL     OW 5302   3.004   0.379   1.678
 1828SOL    HW1 5303   2.954   0.432   1.746
 1828SOL    HW2 5304   3.098   0.413   1.672
 1829SOL     OW 5305   3.030   0.214   1.468
 1829SOL    HW1 5306   3.019   0.286   1.536
 1829SOL    HW2 5307   3.076   0.251   1.387
 1830SOL     OW 5308   1.968   1.779   0.960
 1830SOL    HW1 5309   1.924   1.704   0.911
 1830SOL    HW2 5310   2.056   1.800   0.918
 1831SOL     OW 5311   2.343   1.572   0.924
 1831SOL    HW1 5312   2.417   1.637   0.939
 1831SOL    HW2 5313   2.372   1.503   0.857
 1832SOL     OW 5314   2.826   0.755   1.234
 1832SOL    HW1 5315   2.893   0.747   1.307
 1832SOL    HW2 5316   2.735   0.731   1.268
 1833SOL     OW 5317   1.883   0.510   1.099
 1833SOL    HW1 5318   1.961   0.507   1.036
 1833SOL    HW2 5319   1.914   0.532   1.191
 1834SOL     OW 5320   2.088   0.521   1.714
 1834SOL    HW1 5321   2.135   0.461   1.649
 1834SOL    HW2 5322   2.053   0.602   1.667
 1835SOL     OW 5323   3.246   0.925   1.646
 1835SOL    HW1 5324   3.273   1.021   1.652
 1835SOL    HW2 5325   3.240   0.898   1.550
 1836SOL     OW 5326   2.659   0.580   0.380
 1836SOL    HW1 5327   2.683   0.499   0.326
 1836SOL    HW2 5328   2.589   0.632   0.331
 1837SOL     OW 5329   3.512   0.633   1.197
 1837SOL    HW1 5330   3.467   0.576   1.266
 1837SOL    HW2 5331   3.590   0.584   1.159
 1838SOL     OW 5332   2.120   1.542   1.713
 1838SOL    HW1 5333   2.105   1.620   1.774
 1838SOL    HW2 5334   2.127   1.458   1.767
 1839SOL     OW 5335   2.540   0.472   1.270
 1839SOL    HW1 5336   2.487   0.389   1.253
 1839SOL    HW2 5337   2.542   0.528   1.188
 1840SOL     OW 5338   2.765   1.682   1.463
 1840SOL    HW1 5339   2.758   1.639   1.373
 1840SOL    HW2 5340   2.777   1.780   1.452
 1841SOL     OW 5341   2.313   0.500   0.210
 1841SOL    HW1 5342   2.382   0.572   0.221
 1841SOL    HW2 5343   2.223   0.542   0.195
 1842SOL     OW 5344   1.978   1.111   1.460
 1842SOL    HW1 5345   1.990   1.062   1.546
 1842SOL    HW2 5346   1.997   1.050   1.383
 1843SOL     OW 5347   3.161   1.038   1.222
 1843SOL    HW1 5348   3.182   0.969   1.153
 1843SOL    HW2 5349   3.089   1.099   1.188
 1844SOL     OW 5350   3.165   0.846   0.311
 1844SOL    HW1 5351   3.081   0.807   0.349
 1844SOL    HW2 5352   3.161   0.841   0.211
 1845SOL     OW 5353   3.611   1.746   1.131
 1845SOL    HW1 5354   3.693   1.772   1.079
 1845SOL    HW2 5355   3.591   1.649   1.115
 1846SOL     OW 5356   3.100   1.722   1.115
 1846SOL    HW1 5357   3.190   1.756   1.085
 1846SOL    HW2 5358   3.106   1.624   1.133
 1847SOL     OW 5359   1.966   1.253   1.032
 1847SOL    HW1 5360   1.936   1.269   1.127
 1847SOL    HW2 5361   1.895   1.202   0.984
 1848SOL     OW 5362   2.562   1.659   1.751
 1848SOL    HW1 5363   2.504   1.738   1.728
 1848SOL    HW2 5364   2.656   1.677   1.722
 1849SOL     OW 5365   2.732   0.132   0.123
 1849SOL    HW1 5366   2.827   0.147   0.096
 1849SOL    HW2 5367   2.728   0.063   0.195
 1850SOL     OW 5368   3.578   0.161   0.473
 1850SOL    HW1 5369   3.662   0.147   0.421
 1850SOL    HW2 5370   3.583   0.111   0.559
 1851SOL     OW 5371   3.222   1.562   0.490
 1851SOL    HW1 5372   3.305   1.569   0.435
 1851SOL    HW2 5373   3.180   1.652   0.499
 1852SOL     OW 5374   2.023   1.772   1.833
 1852SOL    HW1 5375   1.961   1.708   1.878
 1852SOL    HW2 5376   2.069   1.828   1.902
 1853SOL     OW 5377   3.135   0.937   0.638
 1853SOL    HW1 5378   3.209   0.874   0.665
 1853SOL    HW2 5379   3.175   1.018   0.596
 1854SOL     OW 5380   2.635   1.263   1.424
 1854SOL    HW1 5381   2.615   1.319   1.504
 1854SOL    HW2 5382   2.560   1.268   1.359
 1855SOL     OW 5383   2.522   1.611   0.183
 1855SOL    HW1 5384   2.578   1.633   0.103
 1855SOL    HW2 5385   2.483   1.520   0.172
 1856SOL     OW 5386   3.495   1.729   1.388
 1856SOL    HW1 5387   3.547   1.735   1.303
 1856SOL    HW2 5388   3.481   1.820   1.426
 1857SOL     OW 5389   3.721   0.162   0.971
 1857SOL    HW1 5390   3.731   0.085   0.909
 1857SOL    HW2 5391   3.638   0.213   0.949
 1858SOL     OW 5392   2.110   0.286   0.710
 1858SOL    HW1 5393   2.027   0.337   0.687
 1858SOL    HW2 5394   2.121   0.283   0.809
 1859SOL     OW 5395   3.069   1.613   0.071
 1859SOL    HW1 5396   3.067   1.516   0.094
 1859SOL    HW2 5397   3.037   1.626   5.064
 1860SOL     OW 5398   2.697   1.008   1.372
 1860SOL    HW1 5399   2.729   0.998   1.278
 1860SOL    HW2 5400   2.683   1.105   1.392
 1861SOL     OW 5401   2.779   0.921   0.290
 1861SOL    HW1 5402   2.852   0.945   0.226
 1861SOL    HW2 5403   2.797   0.831   0.330
 1862SOL     OW 5404   3.325   1.571   0.005
 1862SOL    HW1 5405   3.239   1.600   0.047
 1862SOL    HW2 5406   3.388   1.649   0.003
 1863SOL     OW 5407   2.203   1.271   1.475
 1863SOL    HW1 5408   2.195   1.353   1.418
 1863SOL    HW2 5409   2.122   1.214   1.462
 1864SOL     OW 5410   3.470   1.301   1.270
 1864SOL    HW1 5411   3.541   1.270   1.333
 1864SOL    HW2 5412   3.408   1.363   1.318
 1865SOL     OW 5413   2.925   1.140   0.729
 1865SOL    HW1 5414   2.846   1.087   0.758
 1865SOL    HW2 5415   2.986   1.081   0.676
 1866SOL     OW 5416   2.895   0.223   0.974
 1866SOL    HW1 5417   2.886   0.176   0.886
 1866SOL    HW2 5418   2.883   0.157   1.048
 1867SOL     OW 5419   2.468   1.465   0.486
 1867SOL    HW1 5420   2.527   1.430   0.414
 1867SOL    HW2 5421   2.394   1.518   0.446
 1868SOL     OW 5422   3.563   0.367   1.371
 1868SOL    HW1 5423   3.623   0.447   1.374
 1868SOL    HW2 5424   3.604   0.297   1.313
 1869SOL     OW 5425   2.118   1.358   0.282
 1869SOL    HW1 5426   2.037   1.392   0.234
 1869SOL    HW2 5427   2.116   1.391   0.377
 1870SOL     OW 5428   1.986   1.016   1.709
 1870SOL    HW1 5429   1.912   1.008   1.776
 1870SOL    HW2 5430   2.070   0.977   1.748
 1871SOL     OW 5431   2.528   0.224   1.468
 1871SOL    HW1 5432   2.615   0.198   1.426
 1871SOL    HW2 5433   2.542   0.242   1.565
 1872SOL     OW 5434   3.299   0.850   1.381
 1872SOL    HW1 5435   3.248   0.908   1.318
 1872SOL    HW2 5436   3.396   0.871   1.377
 1873SOL     OW 5437   1.958   0.171   0.330
 1873SOL    HW1 5438   1.926   0.242   0.269
 1873SOL    HW2 5439   2.042   0.130   0.294
 1874SOL     OW 5440   3.039   1.354   0.143
 1874SOL    HW1 5441   2.943   1.338   0.121
 1874SOL    HW2 5442   3.055   1.332   0.240
 1875SOL     OW 5443   2.486   0.833   1.433
 1875SOL    HW1 5444   2.541   0.917   1.430
 1875SOL    HW2 5445   2.547   0.755   1.443
 1876SOL     OW 5446   3.367   1.769   0.969
 1876SOL    HW1 5447   3.411   1.793   0.883
 1876SOL    HW2 5448   3.437   1.753   1.039
 1877SOL     OW 5449   2.611   0.538   1.688
 1877SOL    HW1 5450   2.647   0.611   1.747
 1877SOL    HW2 5451   2.613   0.451   1.738
 1878SOL     OW 5452   3.343   1.180   1.626
 1878SOL    HW1 5453   3.333   1.190   1.725
 1878SOL    HW2 5454   3.438   1.197   1.600
 1879SOL     OW 5455   2.233   1.723   1.548
 1879SOL    HW1 5456   2.154   1.784   1.540
 1879SOL    HW2 5457   2.205   1.638   1.593
 1880SOL     OW 5458   3.557   0.898   1.230
 1880SOL    HW1 5459   3.543   0.801   1.209
 1880SOL    HW2 5460   3.512   0.955   1.161
 1881SOL     OW 5461   3.105   0.321   0.476
 1881SOL    HW1 5462   3.164   0.241   0.475
 1881SOL    HW2 5463   3.132   0.380   0.553
 1882SOL     OW 5464   2.444   0.740   0.662
 1882SOL    HW1 5465   2.505   0.817   0.646
 1882SOL    HW2 5466   2.377   0.735   0.588
 1883SOL     OW 5467   3.613   0.384   1.641
 1883SOL    HW1 5468   3.590   0.389   1.544
 1883SOL    HW2 5469   3.542   0.333   1.690
 1884SOL     OW 5470   3.587   0.931   1.489
 1884SOL    HW1 5471   3.590   1.030   1.506
 1884SOL    HW2 5472   3.605   0.913   1.392
 1885SOL     OW 5473   2.771   1.357   0.056
 1885SOL    HW1 5474   2.709   1.343   0.132
 1885SOL    HW2 5475   2.762   1.451   0.022
 1886SOL     OW 5476   2.510   1.797   0.910
 1886SOL    HW1 5477   2.492   1.893   0.892
 1886SOL    HW2 5478   2.608   1.779   0.900
 1887SOL     OW 5479   2.738   0.966   0.838
 1887SOL    HW1 5480   2.776   0.881   0.874
 1887SOL    HW2 5481   2.716   1.028   0.913
 1888SOL     OW 5482   2.959   0.995   0.082
 1888SOL    HW1 5483   2.965   1.076   0.023
 1888SOL    HW2 5484   3.040   0.939   0.070
 1889SOL     OW 5485   3.698   1.572   0.856
 1889SOL    HW1 5486   3.614   1.553   0.806
 1889SOL    HW2 5487   3.727   1.489   0.904
 1890SOL     OW 5488   2.098   1.320   1.860
 1890SOL    HW1 5489   2.033   1.253   1.823
 1890SOL    HW2 5490   2.080   1.334   1.957
 1891SOL     OW 5491   1.957   1.263   0.671
 1891SOL    HW1 5492   1.980   1.214   0.755
 1891SOL    HW2 5493   2.008   1.224   0.594
 1892SOL     OW 5494   2.540   1.409   1.625
 1892SOL    HW1 5495   2.461   1.357   1.656
 1892SOL    HW2 5496   2.542   1.498   1.671
 1893SOL     OW 5497   3.664   0.156   1.240
 1893SOL    HW1 5498   3.663   0.060   1.268
 1893SOL    HW2 5499   3.681   0.161   1.141
 1894SOL     OW 5500   2.292   0.416   0.508
 1894SOL    HW1 5501   2.331   0.349   0.445
 1894SOL    HW2 5502   2.260   0.369   0.590
 1895SOL     OW 5503   3.541   1.494   1.097
 1895SOL    HW1 5504   3.468   1.477   1.031
 1895SOL    HW2 5505   3.539   1.424   1.168
 1896SOL     OW 5506   2.176   0.548   1.283
 1896SOL    HW1 5507   2.241   0.493   1.336
 1896SOL    HW2 5508   2.192   0.533   1.185
 1897SOL     OW 5509   2.688   1.605   0.669
 1897SOL    HW1 5510   2.693   1.618   0.570
 1897SOL    HW2 5511   2.607   1.550   0.692
 1898SOL     OW 5512   3.246   0.202   1.150
 1898SOL    HW1 5513   3.333   0.183   1.195
 1898SOL    HW2 5514   3.199   0.276   1.198
 1899SOL     OW 5515   2.865   0.017   1.159
 1899SOL    HW1 5516   2.796   5.049   1.112
 1899SOL    HW2 5517   2.951   5.052   1.162
 1900SOL     OW 5518   2.650   1.348   0.311
 1900SOL    HW1 5519   2.609   1.258   0.327
 1900SOL    HW2 5520   2.724   1.364   0.376
 1901SOL     OW 5521   2.475   1.564   1.254
 1901SOL    HW1 5522   2.463   1.652   1.301
 1901SOL    HW2 5523   2.571   1.551   1.232
 1902SOL     OW 5524   3.168   0.041   0.170
 1902SOL    HW1 5525   3.220   5.062   0.116
 1902SOL    HW2 5526   3.089   0.072   0.117
 1903SOL     OW 5527   3.149   0.471   0.693
 1903SOL    HW1 5528   3.093   0.552   0.674
 1903SOL    HW2 5529   3.149   0.453   0.792
 1904SOL     OW 5530   3.483   0.290   0.933
 1904SOL    HW1 5531   3.428   0.207   0.931
 1904SOL    HW2 5532   3.474   0.338   0.846
 1905SOL     OW 5533   1.899   1.099   0.311
 1905SOL    HW1 5534   1.992   1.108   0.275
 1905SOL    HW2 5535   1.887   1.009   0.352
 1906SOL     OW 5536   2.727   1.638   0.376
 1906SOL    HW1 5537   2.654   1.625   0.309
 1906SOL    HW2 5538   2.721   1.729   0.416
 1907SOL     OW 5539   2.090   0.638   2.001
 1907SOL    HW1 5540   1.996   0.619   2.029
 1907SOL    HW2 5541   2.101   0.618   1.904
 1908SOL     OW 5542   2.067   0.308   2.869
 1908SOL    HW1 5543   2.103   0.285   2.960
 1908SOL    HW2 5544   1.983   0.256   2.852
 1909SOL     OW 5545   1.889   0.398   2.509
 1909SOL    HW1 5546   1.800   0.423   2.548
 1909SOL    HW2 5547   1.875   0.337   2.431
 1910SOL     OW 5548   2.420   1.302   3.072
 1910SOL    HW1 5549   2.323   1.281   3.057
 1910SOL    HW2 5550   2.430   1.399   3.091
 1911SOL     OW 5551   3.407   1.518   2.583
 1911SOL    HW1 5552   3.370   1.494   2.673
 1911SOL    HW2 5553   3.335   1.511   2.514
 1912SOL     OW 5554   2.993   0.703   2.578
 1912SOL    HW1 5555   3.029   0.794   2.558
 1912SOL    HW2 5556   2.955   0.701   2.670
 1913SOL     OW 5557   3.641   0.610   2.074
 1913SOL    HW1 5558   3.618   0.602   1.977
 1913SOL    HW2 5559   3.593   0.539   2.126
 1914SOL     OW 5560   2.583   1.188   2.887
 1914SOL    HW1 5561   2.522   1.223   2.958
 1914SOL    HW2 5562   2.628   1.264   2.841
 1915SOL     OW 5563   2.745   0.753   3.654
 1915SOL    HW1 5564   2.717   0.813   3.730
 1915SOL    HW2 5565   2.771   0.809   3.575
 1916SOL     OW 5566   2.542   1.023   2.513
 1916SOL    HW1 5567   2.612   1.006   2.582
 1916SOL    HW2 5568   2.469   1.078   2.554
 1917SOL     OW 5569   2.560   1.167   3.665
 1917SOL    HW1 5570   2.610   1.249   3.695
 1917SOL    HW2 5571   2.469   1.194   3.634
 1918SOL     OW 5572   2.172   1.439   2.932
 1918SOL    HW1 5573   2.099   1.387   2.887
 1918SOL    HW2 5574   2.230   1.483   2.863
 1919SOL     OW 5575   3.336   1.506   3.234
 1919SOL    HW1 5576   3.396   1.584   3.249
 1919SOL    HW2 5577   3.266   1.503   3.306
 1920SOL     OW 5578   2.297   0.401   3.384
 1920SOL    HW1 5579   2.384   0.360   3.357
 1920SOL    HW2 5580   2.223   0.335   3.372
 1921SOL     OW 5581   3.493   0.466   2.604
 1921SOL    HW1 5582   3.439   0.494   2.524
 1921SOL    HW2 5583   3.462   0.516   2.685
 1922SOL     OW 5584   2.092   1.698   2.346
 1922SOL    HW1 5585   2.110   1.777   2.405
 1922SOL    HW2 5586   2.143   1.708   2.261
 1923SOL     OW 5587   2.988   1.349   3.552
 1923SOL    HW1 5588   3.039   1.342   3.638
 1923SOL    HW2 5589   2.932   1.267   3.540
 1924SOL     OW 5590   2.122   1.435   2.398
 1924SOL    HW1 5591   2.111   1.534   2.395
 1924SOL    HW2 5592   2.054   1.396   2.461
 1925SOL     OW 5593   2.133   1.098   2.767
 1925SOL    HW1 5594   2.147   1.009   2.811
 1925SOL    HW2 5595   2.079   1.157   2.827
 1926SOL     OW 5596   2.455   1.801   3.267
 1926SOL    HW1 5597   2.380   1.768   3.323
 1926SOL    HW2 5598   2.488   1.889   3.302
 1927SOL     OW 5599   2.442   0.994   1.979
 1927SOL    HW1 5600   2.487   1.047   1.907
 1927SOL    HW2 5601   2.480   1.022   2.068
 1928SOL     OW 5602   3.469   0.120   3.362
 1928SOL    HW1 5603   3.440   0.179   3.286
 1928SOL    HW2 5604   3.454   0.167   3.449
 1929SOL     OW 5605   1.973   0.674   2.428
 1929SOL    HW1 5606   1.951   0.578   2.449
 1929SOL    HW2 5607   1.981   0.726   2.513
 1930SOL     OW 5608   3.719   1.733   2.224
 1930SOL    HW1 5609   3.790   1.715   2.292
 1930SOL    HW2 5610   3.737   1.822   2.181
 1931SOL     OW 5611   1.872   1.593   1.968
 1931SOL    HW1 5612   1.871   1.495   1.987
 1931SOL    HW2 5613   1.844   1.644   2.049
 1932SOL     OW 5614   3.531   0.922   2.492
 1932SOL    HW1 5615   3.617   0.874   2.475
 1932SOL    HW2 5616   3.512   0.985   2.417
 1933SOL     OW 5617   3.513   1.137   2.306
 1933SOL    HW1 5618   3.605   1.119   2.270
 1933SOL    HW2 5619   3.519   1.202   2.381
 1934SOL     OW 5620   1.994   0.753   3.438
 1934SOL    HW1 5621   2.092   0.771   3.423
 1934SOL    HW2 5622   1.954   0.830   3.488
 1935SOL     OW 5623   2.463   1.413   2.609
 1935SOL    HW1 5624   2.417   1.325   2.620
 1935SOL    HW2 5625   2.461   1.441   2.513
 1936SOL     OW 5626   3.156   1.240   3.276
 1936SOL    HW1 5627   3.175   1.168   3.210
 1936SOL    HW2 5628   3.216   1.230   3.355
 1937SOL     OW 5629   2.678   0.009   2.366
 1937SOL    HW1 5630   2.701   0.106   2.361
 1937SOL    HW2 5631   2.579   5.086   2.382
 1938SOL     OW 5632   2.034   0.961   3.122
 1938SOL    HW1 5633   2.128   0.933   3.102
 1938SOL    HW2 5634   1.971   0.905   3.070
 1939SOL     OW 5635   3.399   0.969   2.054
 1939SOL    HW1 5636   3.320   0.919   2.090
 1939SOL    HW2 5637   3.440   1.023   2.127
 1940SOL     OW 5638   3.026   1.802   3.475
 1940SOL    HW1 5639   3.036   1.876   3.408
 1940SOL    HW2 5640   3.056   1.716   3.434
 1941SOL     OW 5641   2.182   0.249   3.651
 1941SOL    HW1 5642   2.242   0.328   3.662
 1941SOL    HW2 5643   2.092   0.269   3.691
 1942SOL     OW 5644   3.301   1.432   2.812
 1942SOL    HW1 5645   3.247   1.456   2.893
 1942SOL    HW2 5646   3.283   1.337   2.788
 1943SOL     OW 5647   3.522   1.726   2.473
 1943SOL    HW1 5648   3.491   1.709   2.380
 1943SOL    HW2 5649   3.486   1.655   2.534
 1944SOL     OW 5650   2.452   0.735   2.117
 1944SOL    HW1 5651   2.462   0.823   2.071
 1944SOL    HW2 5652   2.384   0.743   2.190
 1945SOL     OW 5653   3.148   0.376   2.820
 1945SOL    HW1 5654   3.053   0.345   2.826
 1945SOL    HW2 5655   3.204   0.323   2.884
 1946SOL     OW 5656   3.450   1.648   2.168
 1946SOL    HW1 5657   3.544   1.667   2.194
 1946SOL    HW2 5658   3.442   1.646   2.068
 1947SOL     OW 5659   2.657   0.622   3.318
 1947SOL    HW1 5660   2.643   0.592   3.413
 1947SOL    HW2 5661   2.609   0.560   3.256
 1948SOL     OW 5662   3.262   0.467   3.536
 1948SOL    HW1 5663   3.253   0.523   3.619
 1948SOL    HW2 5664   3.317   0.387   3.556
 1949SOL     OW 5665   2.820   0.884   3.429
 1949SOL    HW1 5666   2.866   0.801   3.397
 1949SOL    HW2 5667   2.772   0.927   3.353
 1950SOL     OW 5668   2.854   0.414   3.077
 1950SOL    HW1 5669   2.774   0.445   3.127
 1950SOL    HW2 5670   2.825   0.353   3.003
 1951SOL     OW 5671   2.899   0.686   2.274
 1951SOL    HW1 5672   2.918   0.701   2.371
 1951SOL    HW2 5673   2.812   0.638   2.265
 1952SOL     OW 5674   1.984   0.844   2.646
 1952SOL    HW1 5675   2.062   0.825   2.707
 1952SOL    HW2 5676   1.937   0.926   2.677
 1953SOL     OW 5677   1.960   1.855   3.430
 1953SOL    HW1 5678   1.982   1.828   3.525
 1953SOL    HW2 5679   1.868   1.824   3.407
 1954SOL     OW 5680   2.738   0.350   2.086
 1954SOL    HW1 5681   2.769   0.407   2.009
 1954SOL    HW2 5682   2.742   0.254   2.059
 1955SOL     OW 5683   3.586   0.587   3.688
 1955SOL    HW1 5684   3.539   0.665   3.647
 1955SOL    HW2 5685   3.610   0.522   3.616
 1956SOL     OW 5686   3.222   1.155   2.405
 1956SOL    HW1 5687   3.312   1.148   2.361
 1956SOL    HW2 5688   3.165   1.221   2.355
 1957SOL     OW 5689   2.405   0.243   2.766
 1957SOL    HW1 5690   2.423   0.247   2.864
 1957SOL    HW2 5691   2.397   0.336   2.730
 1958SOL     OW 5692   2.843   1.442   2.348
 1958SOL    HW1 5693   2.806   1.509   2.283
 1958SOL    HW2 5694   2.862   1.487   2.435
 1959SOL     OW 5695   2.217   1.805   2.716
 1959SOL    HW1 5696   2.249   1.712   2.733
 1959SOL    HW2 5697   2.272   1.870   2.767
 1960SOL     OW 5698   3.673   1.044   2.739
 1960SOL    HW1 5699   3.619   1.036   2.655
 1960SOL    HW2 5700   3.613   1.028   2.818
 1961SOL     OW 5701   3.088   1.552   3.363
 1961SOL    HW1 5702   3.065   1.488   3.436
 1961SOL    HW2 5703   3.047   1.521   3.277
 1962SOL     OW 5704   2.174   0.950   2.110
 1962SOL    HW1 5705   2.265   0.963   2.069
 1962SOL    HW2 5706   2.145   0.855   2.095
 1963SOL     OW 5707   3.342   0.740   2.573
 1963SOL    HW1 5708   3.336   0.713   2.669
 1963SOL    HW2 5709   3.413   0.810   2.563
 1964SOL     OW 5710   2.324   1.268   3.572
 1964SOL    HW1 5711   2.291   1.265   3.478
 1964SOL    HW2 5712   2.249   1.290   3.633
 1965SOL     OW 5713   2.960   1.764   2.105
 1965SOL    HW1 5714   2.883   1.713   2.143
 1965SOL    HW2 5715   2.981   1.730   2.013
 1966SOL     OW 5716   2.040   0.296   3.357
 1966SOL    HW1 5717   1.980   0.376   3.361
 1966SOL    HW2 5718   1.998   0.221   3.407
 1967SOL     OW 5719   3.484   1.376   1.955
 1967SOL    HW1 5720   3.464   1.469   1.922
 1967SOL    HW2 5721   3.417   1.312   1.918
 1968SOL     OW 5722   2.325   1.734   2.176
 1968SOL    HW1 5723   2.367   1.793   2.246
 1968SOL    HW2 5724   2.395   1.705   2.111
 1969SOL     OW 5725   3.283   0.100   2.294
 1969SOL    HW1 5726   3.252   0.078   2.201
 1969SOL    HW2 5727   3.382   0.114   2.293
 1970SOL     OW 5728   2.105   1.789   3.085
 1970SOL    HW1 5729   2.168   1.722   3.125
 1970SOL    HW2 5730   2.077   1.758   2.994
 1971SOL     OW 5731   2.826   1.701   2.756
 1971SOL    HW1 5732   2.918   1.664   2.769
 1971SOL    HW2 5733   2.780   1.652   2.681
 1972SOL     OW 5734   2.222   0.695   2.322
 1972SOL    HW1 5735   2.260   0.603   2.328
 1972SOL    HW2 5736   2.125   0.693   2.347
 1973SOL     OW 5737   3.403   0.235   3.590
 1973SOL    HW1 5738   3.411   0.251   3.688
 1973SOL    HW2 5739   3.346   0.154   3.574
 1974SOL     OW 5740   2.504   0.140   1.951
 1974SOL    HW1 5741   2.543   0.069   2.010
 1974SOL    HW2 5742   2.453   0.096   1.876
 1975SOL     OW 5743   2.624   0.279   3.620
 1975SOL    HW1 5744   2.708   0.228   3.603
 1975SOL    HW2 5745   2.575   0.239   3.697
 1976SOL     OW 5746   2.765   1.556   3.057
 1976SOL    HW1 5747   2.745   1.525   2.963
 1976SOL    HW2 5748   2.823   1.489   3.102
 1977SOL     OW 5749   3.202   0.610   3.311
 1977SOL    HW1 5750   3.241   0.564   3.391
 1977SOL    HW2 5751   3.252   0.695   3.295
 1978SOL     OW 5752   2.677   1.427   2.782
 1978SOL    HW1 5753   2.767   1.408   2.744
 1978SOL    HW2 5754   2.608   1.422   2.710
 1979SOL     OW 5755   2.793   0.504   2.757
 1979SOL    HW1 5756   2.770   0.509   2.660
 1979SOL    HW2 5757   2.810   0.409   2.782
 1980SOL     OW 5758   2.409   0.044   2.358
 1980SOL    HW1 5759   2.323   0.029   2.407
 1980SOL    HW2 5760   2.399   0.121   2.295
 1981SOL     OW 5761   3.305   1.184   1.888
 1981SOL    HW1 5762   3.328   1.104   1.943
 1981SOL    HW2 5763   3.218   1.223   1.920
 1982SOL     OW 5764   2.165   0.062   2.115
 1982SOL    HW1 5765   2.181   0.128   2.041
 1982SOL    HW2 5766   2.214   5.064   2.095
 1983SOL     OW 5767   2.809   0.256   2.356
 1983SOL    HW1 5768   2.787   0.304   2.271
 1983SOL    HW2 5769   2.908   0.252   2.368
 1984SOL     OW 5770   2.949   0.675   3.330
 1984SOL    HW1 5771   2.890   0.593   3.334
 1984SOL    HW2 5772   3.045   0.647   3.330
 1985SOL     OW 5773   3.093   1.603   2.653
 1985SOL    HW1 5774   3.099   1.664   2.573
 1985SOL    HW2 5775   3.179   1.606   2.704
 1986SOL     OW 5776   2.325   1.176   2.594
 1986SOL    HW1 5777   2.252   1.147   2.655
 1986SOL    HW2 5778   2.294   1.169   2.499
 1987SOL     OW 5779   3.120   1.817   2.459
 1987SOL    HW1 5780   3.191   1.860   2.404
 1987SOL    HW2 5781   3.090   1.881   2.530
 1988SOL     OW 5782   2.924   0.552   1.876
 1988SOL    HW1 5783   2.868   0.630   1.849
 1988SOL    HW2 5784   2.995   0.582   1.940
 1989SOL     OW 5785   1.922   0.555   3.266
 1989SOL    HW1 5786   2.017   0.544   3.237
 1989SOL    HW2 5787   1.914   0.637   3.323
 1990SOL     OW 5788   2.415   0.263   3.041
 1990SOL    HW1 5789   2.467   0.211   3.108
 1990SOL    HW2 5790   2.318   0.258   3.062
 1991SOL     OW 5791   2.739   0.470   2.499
 1991SOL    HW1 5792   2.677   0.517   2.436
 1991SOL    HW2 5793   2.765   0.382   2.460
 1992SOL     OW 5794   2.824   0.008   2.629
 1992SOL    HW1 5795   2.801   0.035   2.536
 1992SOL    HW2 5796   2.870   5.006   2.628
 1993SOL     OW 5797   3.264   1.170   2.747
 1993SOL    HW1 5798   3.199   1.100   2.776
 1993SOL    HW2 5799   3.266   1.175   2.647
 1994SOL     OW 5800   3.344   0.591   2.831
 1994SOL    HW1 5801   3.271   0.525   2.846
 1994SOL    HW2 5802   3.407   0.591   2.909
 1995SOL     OW 5803   3.692   0.817   2.238
 1995SOL    HW1 5804   3.748   0.777   2.311
 1995SOL    HW2 5805   3.679   0.750   2.165
 1996SOL     OW 5806   2.352   1.426   1.988
 1996SOL    HW1 5807   2.269   1.417   2.042
 1996SOL    HW2 5808   2.344   1.372   1.904
 1997SOL     OW 5809   3.552   1.290   2.525
 1997SOL    HW1 5810   3.652   1.294   2.518
 1997SOL    HW2 5811   3.516   1.380   2.546
 1998SOL     OW 5812   3.273   0.600   1.938
 1998SOL    HW1 5813   3.219   0.570   2.017
 1998SOL    HW2 5814   3.368   0.569   1.949
 1999SOL     OW 5815   2.395   0.255   2.174
 1999SOL    HW1 5816   2.433   0.202   2.098
 1999SOL    HW2 5817   2.359   0.342   2.139
 2000SOL     OW 5818   3.606   1.235   3.431
 2000SOL    HW1 5819   3.692   1.185   3.443
 2000SOL    HW2 5820   3.620   1.331   3.455
 2001SOL     OW 5821   2.915   1.368   3.198
 2001SOL    HW1 5822   2.828   1.338   3.237
 2001SOL    HW2 5823   2.990   1.317   3.240
 2002SOL     OW 5824   3.476   1.607   3.493
 2002SOL    HW1 5825   3.481   1.650   3.402
 2002SOL    HW2 5826   3.558   1.551   3.507
 2003SOL     OW 5827   2.974   1.235   2.962
 2003SOL    HW1 5828   2.925   1.284   3.035
 2003SOL    HW2 5829   2.943   1.268   2.873
 2004SOL     OW 5830   3.446   1.080   2.931
 2004SOL    HW1 5831   3.463   1.149   3.002
 2004SOL    HW2 5832   3.392   1.121   2.857
 2005SOL     OW 5833   2.784   0.140   3.248
 2005SOL    HW1 5834   2.804   0.106   3.157
 2005SOL    HW2 5835   2.870   0.158   3.297
 2006SOL     OW 5836   2.836   1.108   3.595
 2006SOL    HW1 5837   2.743   1.130   3.623
 2006SOL    HW2 5838   2.834   1.034   3.528
 2007SOL     OW 5839   2.580   1.057   2.211
 2007SOL    HW1 5840   2.562   1.046   2.309
 2007SOL    HW2 5841   2.661   1.004   2.186
 2008SOL     OW 5842   2.278   0.806   3.112
 2008SOL    HW1 5843   2.351   0.812   3.181
 2008SOL    HW2 5844   2.229   0.719   3.124
 2009SOL     OW 5845   3.118   0.408   3.140
 2009SOL    HW1 5846   3.141   0.491   3.190
 2009SOL    HW2 5847   3.025   0.415   3.104
 2010SOL     OW 5848   1.940   1.566   3.201
 2010SOL    HW1 5849   1.926   1.660   3.171
 2010SOL    HW2 5850   2.038   1.545   3.199
 2011SOL     OW 5851   2.215   1.142   2.345
 2011SOL    HW1 5852   2.214   1.208   2.270
 2011SOL    HW2 5853   2.198   1.050   2.309
 2012SOL     OW 5854   2.392   0.549   2.697
 2012SOL    HW1 5855   2.412   0.611   2.622
 2012SOL    HW2 5856   2.457   0.563   2.771
 2013SOL     OW 5857   3.084   1.342   2.250
 2013SOL    HW1 5858   3.137   1.417   2.288
 2013SOL    HW2 5859   2.988   1.354   2.274
 2014SOL     OW 5860   3.159   1.464   3.038
 2014SOL    HW1 5861   3.225   1.470   3.112
 2014SOL    HW2 5862   3.106   1.380   3.046
 2015SOL     OW 5863   3.444   0.622   2.330
 2015SOL    HW1 5864   3.393   0.662   2.406
 2015SOL    HW2 5865   3.477   0.694   2.270
 2016SOL     OW 5866   2.204   1.502   3.181
 2016SOL    HW1 5867   2.189   1.477   3.085
 2016SOL    HW2 5868   2.299   1.529   3.193
 2017SOL     OW 5869   2.293   0.730   3.458
 2017SOL    HW1 5870   2.360   0.777   3.401
 2017SOL    HW2 5871   2.318   0.633   3.466
 2018SOL     OW 5872   3.480   0.790   3.555
 2018SOL    HW1 5873   3.388   0.829   3.560
 2018SOL    HW2 5874   3.529   0.831   3.478
 2019SOL     OW 5875   2.844   0.142   3.567
 2019SOL    HW1 5876   2.914   0.209   3.543
 2019SOL    HW2 5877   2.879   0.050   3.550
 2020SOL     OW 5878   2.339   0.017   3.630
 2020SOL    HW1 5879   2.325   5.059   3.542
 2020SOL    HW2 5880   2.277   0.095   3.638
 2021SOL     OW 5881   2.465   0.876   2.914
 2021SOL    HW1 5882   2.484   0.973   2.901
 2021SOL    HW2 5883   2.401   0.864   2.989
 2022SOL     OW 5884   3.208   0.832   2.914
 2022SOL    HW1 5885   3.124   0.817   2.863
 2022SOL    HW2 5886   3.267   0.751   2.907
 2023SOL     OW 5887   3.093   0.507   2.126
 2023SOL    HW1 5888   3.107   0.427   2.183
 2023SOL    HW2 5889   3.021   0.564   2.165
 2024SOL     OW 5890   2.155   0.221   3.112
 2024SOL    HW1 5891   2.104   0.233   3.197
 2024SOL    HW2 5892   2.160   0.124   3.090
 2025SOL     OW 5893   1.894   1.293   3.156
 2025SOL    HW1 5894   1.927   1.233   3.229
 2025SOL    HW2 5895   1.910   1.388   3.183
 2026SOL     OW 5896   2.561   0.613   2.892
 2026SOL    HW1 5897   2.651   0.594   2.854
 2026SOL    HW2 5898   2.544   0.712   2.891
 2027SOL     OW 5899   3.632   0.955   3.716
 2027SOL    HW1 5900   3.583   0.892   3.656
 2027SOL    HW2 5901   3.573   0.983   3.792
 2028SOL     OW 5902   2.162   0.026   2.476
 2028SOL    HW1 5903   2.143   0.123   2.491
 2028SOL    HW2 5904   2.205   5.074   2.557
 2029SOL     OW 5905   3.447   0.377   2.212
 2029SOL    HW1 5906   3.485   0.305   2.270
 2029SOL    HW2 5907   3.440   0.462   2.265
 2030SOL     OW 5908   2.921   0.743   2.844
 2030SOL    HW1 5909   2.902   0.770   2.938
 2030SOL    HW2 5910   2.888   0.651   2.827
 2031SOL     OW 5911   2.834   1.571   3.556
 2031SOL    HW1 5912   2.819   1.623   3.472
 2031SOL    HW2 5913   2.869   1.480   3.534
 2032SOL     OW 5914   3.718   1.492   3.468
 2032SOL    HW1 5915   3.737   1.509   3.371
 2032SOL    HW2 5916   3.796   1.522   3.522
 2033SOL     OW 5917   2.212   0.901   3.654
 2033SOL    HW1 5918   2.290   0.921   3.714
 2033SOL    HW2 5919   2.238   0.829   3.590
 2034SOL     OW 5920   3.385   0.242   1.994
 2034SOL    HW1 5921   3.287   0.257   1.981
 2034SOL    HW2 5922   3.416   0.292   2.074
 2035SOL     OW 5923   3.157   0.831   1.878
 2035SOL    HW1 5924   3.210   0.749   1.899
 2035SOL    HW2 5925   3.181   0.865   1.787
 2036SOL     OW 5926   2.928   1.366   2.708
 2036SOL    HW1 5927   2.940   1.284   2.652
 2036SOL    HW2 5928   3.003   1.429   2.691
 2037SOL     OW 5929   2.190   0.811   2.825
 2037SOL    HW1 5930   2.289   0.825   2.825
 2037SOL    HW2 5931   2.170   0.716   2.846
 2038SOL     OW 5932   2.177   0.547   2.854
 2038SOL    HW1 5933   2.133   0.457   2.849
 2038SOL    HW2 5934   2.249   0.552   2.785
 2039SOL     OW 5935   3.011   0.377   3.539
 2039SOL    HW1 5936   2.959   0.430   3.607
 2039SOL    HW2 5937   3.105   0.411   3.535
 2040SOL     OW 5938   3.038   0.210   3.327
 2040SOL    HW1 5939   3.023   0.281   3.396
 2040SOL    HW2 5940   3.081   0.250   3.247
 2041SOL     OW 5941   1.865   1.329   2.057
 2041SOL    HW1 5942   1.770   1.347   2.028
 2041SOL    HW2 5943   1.872   1.235   2.089
 2042SOL     OW 5944   1.973   1.786   2.813
 2042SOL    HW1 5945   1.934   1.709   2.762
 2042SOL    HW2 5946   2.063   1.809   2.776
 2043SOL     OW 5947   2.354   1.582   2.790
 2043SOL    HW1 5948   2.431   1.635   2.826
 2043SOL    HW2 5949   2.389   1.510   2.730
 2044SOL     OW 5950   2.832   0.778   3.106
 2044SOL    HW1 5951   2.894   0.752   3.181
 2044SOL    HW2 5952   2.740   0.743   3.125
 2045SOL     OW 5953   1.880   0.530   2.973
 2045SOL    HW1 5954   1.951   0.513   2.905
 2045SOL    HW2 5955   1.922   0.539   3.063
 2046SOL     OW 5956   2.090   0.529   3.585
 2046SOL    HW1 5957   2.136   0.467   3.522
 2046SOL    HW2 5958   2.054   0.607   3.535
 2047SOL     OW 5959   3.242   0.929   3.515
 2047SOL    HW1 5960   3.269   1.025   3.517
 2047SOL    HW2 5961   3.234   0.899   3.420
 2048SOL     OW 5962   2.663   0.577   2.218
 2048SOL    HW1 5963   2.675   0.489   2.170
 2048SOL    HW2 5964   2.589   0.628   2.174
 2049SOL     OW 5965   3.495   0.620   3.059
 2049SOL    HW1 5966   3.459   0.560   3.131
 2049SOL    HW2 5967   3.582   0.585   3.026
 2050SOL     OW 5968   2.116   1.539   3.579
 2050SOL    HW1 5969   2.100   1.618   3.638
 2050SOL    HW2 5970   2.118   1.456   3.635
 2051SOL     OW 5971   2.542   0.485   3.123
 2051SOL    HW1 5972   2.491   0.401   3.101
 2051SOL    HW2 5973   2.545   0.544   3.042
 2052SOL     OW 5974   2.771   1.693   3.324
 2052SOL    HW1 5975   2.772   1.652   3.233
 2052SOL    HW2 5976   2.781   1.792   3.317
 2053SOL     OW 5977   2.313   0.497   2.074
 2053SOL    HW1 5978   2.380   0.571   2.068
 2053SOL    HW2 5979   2.221   0.535   2.066
 2054SOL     OW 5980   1.979   1.113   3.335
 2054SOL    HW1 5981   1.984   1.067   3.423
 2054SOL    HW2 5982   1.997   1.048   3.261
 2055SOL     OW 5983   3.167   1.038   3.085
 2055SOL    HW1 5984   3.192   0.969   3.018
 2055SOL    HW2 5985   3.088   1.090   3.052
 2056SOL     OW 5986   3.177   0.850   2.157
 2056SOL    HW1 5987   3.096   0.821   2.209
 2056SOL    HW2 5988   3.154   0.853   2.059
 2057SOL     OW 5989   3.619   1.746   2.991
 2057SOL    HW1 5990   3.699   1.769   2.934
 2057SOL    HW2 5991   3.601   1.648   2.983
 2058SOL     OW 5992   3.123   1.732   2.958
 2058SOL    HW1 5993   3.207   1.751   2.908
 2058SOL    HW2 5994   3.123   1.637   2.989
 2059SOL     OW 5995   1.966   1.258   2.903
 2059SOL    HW1 5996   1.939   1.271   2.998
 2059SOL    HW2 5997   1.892   1.213   2.853
 2060SOL     OW 5998   2.565   1.651   3.620
 2060SOL    HW1 5999   2.522   1.735   3.587
 2060SOL    HW2 6000   2.660   1.647   3.588
 2061SOL     OW 6001   3.559   0.142   2.323
 2061SOL    HW1 6002   3.646   0.155   2.274
 2061SOL    HW2 6003   3.573   0.078   2.399
 2062SOL     OW 6004   3.236   1.573   2.339
 2062SOL    HW1 6005   3.307   1.582   2.268
 2062SOL    HW2 6006   3.190   1.661   2.352
 2063SOL     OW 6007   2.025   1.780   3.691
 2063SOL    HW1 6008   1.973   1.711   3.742
 2063SOL    HW2 6009   2.074   1.838   3.755
 2064SOL     OW 6010   3.138   0.926   2.522
 2064SOL    HW1 6011   3.212   0.861   2.540
 2064SOL    HW2 6012   3.174   1.005   2.473
 2065SOL     OW 6013   2.648   1.285   3.272
 2065SOL    HW1 6014   2.628   1.342   3.353
 2065SOL    HW2 6015   2.564   1.274   3.218
 2066SOL     OW 6016   2.537   1.611   2.018
 2066SOL    HW1 6017   2.555   1.638   1.923
 2066SOL    HW2 6018   2.472   1.535   2.019
 2067SOL     OW 6019   3.494   1.727   3.253
 2067SOL    HW1 6020   3.534   1.738   3.162
 2067SOL    HW2 6021   3.473   1.817   3.291
 2068SOL     OW 6022   3.719   0.161   2.829
 2068SOL    HW1 6023   3.729   0.087   2.762
 2068SOL    HW2 6024   3.635   0.211   2.811
 2069SOL     OW 6025   2.115   0.279   2.568
 2069SOL    HW1 6026   2.034   0.333   2.545
 2069SOL    HW2 6027   2.132   0.284   2.666
 2070SOL     OW 6028   3.039   1.634   1.883
 2070SOL    HW1 6029   3.049   1.540   1.914
 2070SOL    HW2 6030   2.982   1.637   1.801
 2071SOL     OW 6031   2.686   1.024   3.239
 2071SOL    HW1 6032   2.729   1.015   3.150
 2071SOL    HW2 6033   2.678   1.120   3.263
 2072SOL     OW 6034   2.791   0.913   2.142
 2072SOL    HW1 6035   2.862   0.947   2.080
 2072SOL    HW2 6036   2.823   0.830   2.187
 2073SOL     OW 6037   3.436   1.637   1.893
 2073SOL    HW1 6038   3.336   1.642   1.900
 2073SOL    HW2 6039   3.463   1.646   1.797
 2074SOL     OW 6040   2.211   1.266   3.333
 2074SOL    HW1 6041   2.201   1.343   3.269
 2074SOL    HW2 6042   2.127   1.212   3.333
 2075SOL     OW 6043   3.476   1.306   3.133
 2075SOL    HW1 6044   3.531   1.271   3.209
 2075SOL    HW2 6045   3.415   1.378   3.167
 2076SOL     OW 6046   2.935   1.128   2.584
 2076SOL    HW1 6047   2.854   1.080   2.616
 2076SOL    HW2 6048   2.994   1.064   2.535
 2077SOL     OW 6049   2.898   0.228   2.839
 2077SOL    HW1 6050   2.892   0.190   2.747
 2077SOL    HW2 6051   2.884   0.155   2.907
 2078SOL     OW 6052   2.480   1.488   2.355
 2078SOL    HW1 6053   2.530   1.432   2.288
 2078SOL    HW2 6054   2.409   1.541   2.308
 2079SOL     OW 6055   3.567   0.364   3.230
 2079SOL    HW1 6056   3.628   0.444   3.234
 2079SOL    HW2 6057   3.607   0.295   3.169
 2080SOL     OW 6058   2.108   1.405   2.136
 2080SOL    HW1 6059   2.011   1.389   2.119
 2080SOL    HW2 6060   2.122   1.424   2.234
 2081SOL     OW 6061   1.985   1.015   3.576
 2081SOL    HW1 6062   1.911   1.008   3.643
 2081SOL    HW2 6063   2.069   0.977   3.615
 2082SOL     OW 6064   2.535   0.226   3.334
 2082SOL    HW1 6065   2.622   0.202   3.292
 2082SOL    HW2 6066   2.548   0.241   3.432
 2083SOL     OW 6067   1.938   0.362   1.878
 2083SOL    HW1 6068   1.840   0.382   1.873
 2083SOL    HW2 6069   1.988   0.428   1.821
 2084SOL     OW 6070   3.302   0.865   3.257
 2084SOL    HW1 6071   3.255   0.927   3.193
 2084SOL    HW2 6072   3.400   0.877   3.247
 2085SOL     OW 6073   1.937   0.200   2.208
 2085SOL    HW1 6074   1.926   0.260   2.129
 2085SOL    HW2 6075   2.004   0.129   2.187
 2086SOL     OW 6076   3.066   1.352   1.973
 2086SOL    HW1 6077   2.972   1.319   1.960
 2086SOL    HW2 6078   3.087   1.353   2.071
 2087SOL     OW 6079   2.489   0.827   3.277
 2087SOL    HW1 6080   2.535   0.916   3.276
 2087SOL    HW2 6081   2.556   0.755   3.293
 2088SOL     OW 6082   3.389   1.775   2.812
 2088SOL    HW1 6083   3.414   1.842   2.742
 2088SOL    HW2 6084   3.468   1.757   2.870
 2089SOL     OW 6085   2.597   0.542   3.559
 2089SOL    HW1 6086   2.641   0.611   3.616
 2089SOL    HW2 6087   2.607   0.452   3.601
 2090SOL     OW 6088   3.337   1.185   3.491
 2090SOL    HW1 6089   3.327   1.188   3.590
 2090SOL    HW2 6090   3.433   1.202   3.467
 2091SOL     OW 6091   2.234   1.734   3.417
 2091SOL    HW1 6092   2.149   1.786   3.410
 2091SOL    HW2 6093   2.215   1.645   3.459
 2092SOL     OW 6094   3.569   0.887   3.094
 2092SOL    HW1 6095   3.546   0.792   3.071
 2092SOL    HW2 6096   3.518   0.949   3.034
 2093SOL     OW 6097   3.103   0.311   2.316
 2093SOL    HW1 6098   3.167   0.234   2.317
 2093SOL    HW2 6099   3.120   0.370   2.395
 2094SOL     OW 6100   2.437   0.750   2.516
 2094SOL    HW1 6101   2.487   0.837   2.507
 2094SOL    HW2 6102   2.357   0.751   2.458
 2095SOL     OW 6103   3.611   0.387   3.505
 2095SOL    HW1 6104   3.590   0.390   3.408
 2095SOL    HW2 6105   3.545   0.330   3.553
 2096SOL     OW 6106   3.587   0.936   3.361
 2096SOL    HW1 6107   3.599   1.034   3.377
 2096SOL    HW2 6108   3.610   0.915   3.266
 2097SOL     OW 6109   2.727   1.379   1.897
 2097SOL    HW1 6110   2.687   1.395   1.987
 2097SOL    HW2 6111   2.748   1.466   1.853
 2098SOL     OW 6112   2.561   1.748   2.850
 2098SOL    HW1 6113   2.553   1.843   2.880
 2098SOL    HW2 6114   2.652   1.732   2.813
 2099SOL     OW 6115   2.742   0.962   2.703
 2099SOL    HW1 6116   2.783   0.878   2.739
 2099SOL    HW2 6117   2.720   1.024   2.779
 2100SOL     OW 6118   2.962   0.992   1.950
 2100SOL    HW1 6119   2.919   1.044   1.877
 2100SOL    HW2 6120   3.030   0.930   1.912
 2101SOL     OW 6121   3.720   1.550   2.718
 2101SOL    HW1 6122   3.626   1.560   2.685
 2101SOL    HW2 6123   3.724   1.474   2.783
 2102SOL     OW 6124   2.110   1.321   3.730
 2102SOL    HW1 6125   2.036   1.264   3.695
 2102SOL    HW2 6126   2.098   1.334   3.829
 2103SOL     OW 6127   1.957   1.234   2.508
 2103SOL    HW1 6128   1.954   1.184   2.595
 2103SOL    HW2 6129   2.034   1.201   2.453
 2104SOL     OW 6130   2.543   1.414   3.482
 2104SOL    HW1 6131   2.475   1.347   3.512
 2104SOL    HW2 6132   2.532   1.498   3.535
 2105SOL     OW 6133   3.670   0.157   3.088
 2105SOL    HW1 6134   3.669   0.062   3.118
 2105SOL    HW2 6135   3.687   0.161   2.990
 2106SOL     OW 6136   2.297   0.420   2.384
 2106SOL    HW1 6137   2.337   0.355   2.318
 2106SOL    HW2 6138   2.258   0.369   2.460
 2107SOL     OW 6139   3.553   1.491   2.954
 2107SOL    HW1 6140   3.473   1.474   2.897
 2107SOL    HW2 6141   3.554   1.426   3.030
 2108SOL     OW 6142   2.175   0.550   3.138
 2108SOL    HW1 6143   2.244   0.501   3.191
 2108SOL    HW2 6144   2.189   0.534   3.041
 2109SOL     OW 6145   2.677   1.611   2.539
 2109SOL    HW1 6146   2.675   1.637   2.442
 2109SOL    HW2 6147   2.597   1.556   2.560
 2110SOL     OW 6148   3.253   0.210   3.025
 2110SOL    HW1 6149   3.346   0.205   3.061
 2110SOL    HW2 6150   3.203   0.284   3.070
 2111SOL     OW 6151   2.873   0.023   3.023
 2111SOL    HW1 6152   2.813   5.032   3.007
 2111SOL    HW2 6153   2.955   5.080   3.071
 2112SOL     OW 6154   2.648   1.342   2.179
 2112SOL    HW1 6155   2.624   1.245   2.170
 2112SOL    HW2 6156   2.722   1.352   2.245
 2113SOL     OW 6157   2.466   1.563   3.137
 2113SOL    HW1 6158   2.458   1.652   3.182
 2113SOL    HW2 6159   2.561   1.547   3.111
 2114SOL     OW 6160   3.151   0.024   2.062
 2114SOL    HW1 6161   3.205   5.048   2.006
 2114SOL    HW2 6162   3.078   5.061   2.108
 2115SOL     OW 6163   3.111   0.460   2.548
 2115SOL    HW1 6164   3.068   0.547   2.527
 2115SOL    HW2 6165   3.126   0.452   2.646
 2116SOL     OW 6166   3.482   0.282   2.808
 2116SOL    HW1 6167   3.423   0.201   2.804
 2116SOL    HW2 6168   3.477   0.331   2.721
 2117SOL     OW 6169   1.924   1.074   2.144
 2117SOL    HW1 6170   2.018   1.060   2.116
 2117SOL    HW2 6171   1.883   0.986   2.170
 2118SOL     OW 6172   2.738   1.641   2.186
 2118SOL    HW1 6173   2.665   1.616   2.123
 2118SOL    HW2 6174   2.714   1.724   2.235
 2119SOL     OW 6175   2.089   0.638   3.864
 2119SOL    HW1 6176   1.991   0.630   3.884
 2119SOL    HW2 6177   2.105   0.624   3.766
 2120SOL     OW 6178   2.065   0.314   4.731
 2120SOL    HW1 6179   2.105   0.285   4.818
 2120SOL    HW2 6180   1.980   0.263   4.714
 2121SOL     OW 6181   1.875   0.409   4.357
 2121SOL    HW1 6182   1.782   0.420   4.393
 2121SOL    HW2 6183   1.875   0.342   4.283
 2122SOL     OW 6184   2.408   1.232   4.879
 2122SOL    HW1 6185   2.310   1.251   4.886
 2122SOL    HW2 6186   2.460   1.310   4.914
 2123SOL     OW 6187   3.402   1.530   4.445
 2123SOL    HW1 6188   3.369   1.501   4.536
 2123SOL    HW2 6189   3.324   1.536   4.382
 2124SOL     OW 6190   2.972   0.722   4.429
 2124SOL    HW1 6191   3.021   0.804   4.399
 2124SOL    HW2 6192   2.937   0.736   4.521
 2125SOL     OW 6193   3.639   0.617   3.944
 2125SOL    HW1 6194   3.622   0.615   3.845
 2125SOL    HW2 6195   3.590   0.542   3.988
 2126SOL     OW 6196   2.614   1.132   4.733
 2126SOL    HW1 6197   2.532   1.160   4.783
 2126SOL    HW2 6198   2.657   1.213   4.693
 2127SOL     OW 6199   2.546   1.008   4.380
 2127SOL    HW1 6200   2.616   0.990   4.449
 2127SOL    HW2 6201   2.476   1.067   4.419
 2128SOL     OW 6202   2.169   1.448   4.802
 2128SOL    HW1 6203   2.103   1.386   4.759
 2128SOL    HW2 6204   2.226   1.489   4.731
 2129SOL     OW 6205   3.480   0.466   4.444
 2129SOL    HW1 6206   3.421   0.510   4.376
 2129SOL    HW2 6207   3.465   0.509   4.534
 2130SOL     OW 6208   2.118   1.723   4.225
 2130SOL    HW1 6209   2.149   1.802   4.278
 2130SOL    HW2 6210   2.160   1.725   4.135
 2131SOL     OW 6211   2.115   1.442   4.270
 2131SOL    HW1 6212   2.119   1.541   4.278
 2131SOL    HW2 6213   2.042   1.407   4.328
 2132SOL     OW 6214   2.134   1.099   4.631
 2132SOL    HW1 6215   2.154   1.011   4.672
 2132SOL    HW2 6216   2.070   1.150   4.689
 2133SOL     OW 6217   2.481   1.872   0.057
 2133SOL    HW1 6218   2.436   1.809   0.120
 2133SOL    HW2 6219   2.563   1.910   0.100
 2134SOL     OW 6220   2.446   0.989   3.839
 2134SOL    HW1 6221   2.488   1.043   3.765
 2134SOL    HW2 6222   2.478   1.023   3.927
 2135SOL     OW 6223   1.956   0.672   4.285
 2135SOL    HW1 6224   1.934   0.578   4.314
 2135SOL    HW2 6225   1.972   0.728   4.366
 2136SOL     OW 6226   3.731   1.739   4.080
 2136SOL    HW1 6227   3.799   1.718   4.150
 2136SOL    HW2 6228   3.733   1.837   4.060
 2137SOL     OW 6229   1.920   1.592   3.844
 2137SOL    HW1 6230   1.905   1.494   3.853
 2137SOL    HW2 6231   1.901   1.637   3.932
 2138SOL     OW 6232   3.545   0.933   4.361
 2138SOL    HW1 6233   3.632   0.887   4.384
 2138SOL    HW2 6234   3.549   0.967   4.268
 2139SOL     OW 6235   3.509   1.148   4.151
 2139SOL    HW1 6236   3.602   1.132   4.117
 2139SOL    HW2 6237   3.513   1.203   4.234
 2140SOL     OW 6238   2.449   1.411   4.465
 2140SOL    HW1 6239   2.413   1.319   4.483
 2140SOL    HW2 6240   2.446   1.430   4.367
 2141SOL     OW 6241   2.679   0.020   4.235
 2141SOL    HW1 6242   2.704   0.116   4.226
 2141SOL    HW2 6243   2.579   0.012   4.236
 2142SOL     OW 6244   2.083   1.018   4.977
 2142SOL    HW1 6245   2.170   0.972   4.962
 2142SOL    HW2 6246   2.009   0.950   4.980
 2143SOL     OW 6247   3.415   0.976   3.917
 2143SOL    HW1 6248   3.336   0.922   3.947
 2143SOL    HW2 6249   3.451   1.028   3.994
 2144SOL     OW 6250   3.318   1.421   4.686
 2144SOL    HW1 6251   3.253   1.438   4.759
 2144SOL    HW2 6252   3.302   1.330   4.648
 2145SOL     OW 6253   3.516   1.735   4.308
 2145SOL    HW1 6254   3.491   1.694   4.221
 2145SOL    HW2 6255   3.499   1.670   4.382
 2146SOL     OW 6256   2.446   0.735   3.978
 2146SOL    HW1 6257   2.460   0.818   3.923
 2146SOL    HW2 6258   2.386   0.756   4.054
 2147SOL     OW 6259   3.178   0.391   4.678
 2147SOL    HW1 6260   3.081   0.370   4.686
 2147SOL    HW2 6261   3.230   0.338   4.745
 2148SOL     OW 6262   3.444   1.651   4.025
 2148SOL    HW1 6263   3.542   1.667   4.039
 2148SOL    HW2 6264   3.425   1.647   3.927
 2149SOL     OW 6265   2.837   0.382   4.932
 2149SOL    HW1 6266   2.747   0.413   4.963
 2149SOL    HW2 6267   2.825   0.318   4.855
 2150SOL     OW 6268   2.901   0.688   4.148
 2150SOL    HW1 6269   2.912   0.702   4.246
 2150SOL    HW2 6270   2.817   0.637   4.131
 2151SOL     OW 6271   1.981   0.852   4.496
 2151SOL    HW1 6272   2.064   0.825   4.544
 2151SOL    HW2 6273   1.949   0.939   4.531
 2152SOL     OW 6274   2.760   0.359   3.939
 2152SOL    HW1 6275   2.785   0.423   3.866
 2152SOL    HW2 6276   2.751   0.267   3.901
 2153SOL     OW 6277   3.242   1.169   4.274
 2153SOL    HW1 6278   3.328   1.156   4.224
 2153SOL    HW2 6279   3.179   1.221   4.217
 2154SOL     OW 6280   2.407   0.244   4.625
 2154SOL    HW1 6281   2.407   0.288   4.715
 2154SOL    HW2 6282   2.391   0.313   4.554
 2155SOL     OW 6283   2.838   1.459   4.187
 2155SOL    HW1 6284   2.799   1.524   4.122
 2155SOL    HW2 6285   2.881   1.509   4.263
 2156SOL     OW 6286   2.211   1.810   4.597
 2156SOL    HW1 6287   2.253   1.720   4.610
 2156SOL    HW2 6288   2.270   1.881   4.636
 2157SOL     OW 6289   3.650   1.071   4.585
 2157SOL    HW1 6290   3.604   1.051   4.498
 2157SOL    HW2 6291   3.585   1.061   4.660
 2158SOL     OW 6292   2.168   0.944   3.964
 2158SOL    HW1 6293   2.259   0.958   3.925
 2158SOL    HW2 6294   2.133   0.855   3.935
 2159SOL     OW 6295   3.344   0.756   4.416
 2159SOL    HW1 6296   3.350   0.711   4.505
 2159SOL    HW2 6297   3.423   0.816   4.404
 2160SOL     OW 6298   2.970   1.750   3.949
 2160SOL    HW1 6299   2.884   1.718   3.988
 2160SOL    HW2 6300   2.986   1.704   3.862
 2161SOL     OW 6301   3.491   1.366   3.808
 2161SOL    HW1 6302   3.461   1.457   3.782
 2161SOL    HW2 6303   3.424   1.298   3.777
 2162SOL     OW 6304   2.322   1.743   4.031
 2162SOL    HW1 6305   2.368   1.792   4.105
 2162SOL    HW2 6306   2.391   1.703   3.971
 2163SOL     OW 6307   3.290   0.093   4.144
 2163SOL    HW1 6308   3.258   0.078   4.050
 2163SOL    HW2 6309   3.387   0.115   4.143
 2164SOL     OW 6310   2.111   1.793   4.937
 2164SOL    HW1 6311   2.142   1.722   5.000
 2164SOL    HW2 6312   2.071   1.750   4.856
 2165SOL     OW 6313   2.824   1.691   4.624
 2165SOL    HW1 6314   2.910   1.640   4.624
 2165SOL    HW2 6315   2.763   1.654   4.554
 2166SOL     OW 6316   2.219   0.694   4.202
 2166SOL    HW1 6317   2.260   0.603   4.198
 2166SOL    HW2 6318   2.121   0.686   4.219
 2167SOL     OW 6319   2.500   0.141   3.803
 2167SOL    HW1 6320   2.546   0.079   3.867
 2167SOL    HW2 6321   2.446   0.088   3.738
 2168SOL     OW 6322   2.667   1.379   4.636
 2168SOL    HW1 6323   2.759   1.388   4.599
 2168SOL    HW2 6324   2.600   1.394   4.564
 2169SOL     OW 6325   2.791   0.511   4.615
 2169SOL    HW1 6326   2.761   0.513   4.520
 2169SOL    HW2 6327   2.806   0.417   4.643
 2170SOL     OW 6328   2.412   0.056   4.195
 2170SOL    HW1 6329   2.328   0.048   4.250
 2170SOL    HW2 6330   2.402   0.132   4.130
 2171SOL     OW 6331   3.306   1.176   3.752
 2171SOL    HW1 6332   3.337   1.096   3.802
 2171SOL    HW2 6333   3.215   1.203   3.785
 2172SOL     OW 6334   2.164   0.062   3.977
 2172SOL    HW1 6335   2.183   0.131   3.907
 2172SOL    HW2 6336   2.205   5.062   3.949
 2173SOL     OW 6337   2.815   0.265   4.216
 2173SOL    HW1 6338   2.798   0.307   4.127
 2173SOL    HW2 6339   2.913   0.259   4.231
 2174SOL     OW 6340   3.083   1.589   4.529
 2174SOL    HW1 6341   3.098   1.650   4.451
 2174SOL    HW2 6342   3.166   1.584   4.584
 2175SOL     OW 6343   2.334   1.158   4.458
 2175SOL    HW1 6344   2.259   1.139   4.522
 2175SOL    HW2 6345   2.302   1.149   4.364
 2176SOL     OW 6346   3.117   1.807   4.319
 2176SOL    HW1 6347   3.169   1.871   4.263
 2176SOL    HW2 6348   3.062   1.858   4.386
 2177SOL     OW 6349   2.925   0.543   3.737
 2177SOL    HW1 6350   2.866   0.621   3.717
 2177SOL    HW2 6351   2.993   0.569   3.806
 2178SOL     OW 6352   2.434   0.233   4.910
 2178SOL    HW1 6353   2.453   0.164   4.840
 2178SOL    HW2 6354   2.336   0.243   4.922
 2179SOL     OW 6355   2.726   0.485   4.341
 2179SOL    HW1 6356   2.670   0.532   4.272
 2179SOL    HW2 6357   2.756   0.397   4.305
 2180SOL     OW 6358   2.816   0.033   4.493
 2180SOL    HW1 6359   2.772   0.055   4.406
 2180SOL    HW2 6360   2.869   5.035   4.483
 2181SOL     OW 6361   3.297   1.170   4.580
 2181SOL    HW1 6362   3.259   1.081   4.603
 2181SOL    HW2 6363   3.293   1.184   4.481
 2182SOL     OW 6364   3.389   0.590   4.680
 2182SOL    HW1 6365   3.316   0.521   4.684
 2182SOL    HW2 6366   3.438   0.591   4.767
 2183SOL     OW 6367   3.688   0.824   4.110
 2183SOL    HW1 6368   3.747   0.787   4.181
 2183SOL    HW2 6369   3.679   0.757   4.036
 2184SOL     OW 6370   2.358   1.410   3.875
 2184SOL    HW1 6371   2.275   1.405   3.931
 2184SOL    HW2 6372   2.339   1.370   3.785
 2185SOL     OW 6373   3.538   1.290   4.383
 2185SOL    HW1 6374   3.638   1.295   4.380
 2185SOL    HW2 6375   3.500   1.382   4.396
 2186SOL     OW 6376   3.269   0.588   3.796
 2186SOL    HW1 6377   3.211   0.566   3.874
 2186SOL    HW2 6378   3.364   0.563   3.817
 2187SOL     OW 6379   2.397   0.260   4.023
 2187SOL    HW1 6380   2.430   0.209   3.943
 2187SOL    HW2 6381   2.357   0.347   3.993
 2188SOL     OW 6382   2.986   1.246   4.830
 2188SOL    HW1 6383   2.901   1.258   4.880
 2188SOL    HW2 6384   2.974   1.278   4.736
 2189SOL     OW 6385   3.470   1.106   4.799
 2189SOL    HW1 6386   3.450   1.135   4.893
 2189SOL    HW2 6387   3.417   1.163   4.736
 2190SOL     OW 6388   2.580   1.057   4.070
 2190SOL    HW1 6389   2.563   1.039   4.166
 2190SOL    HW2 6390   2.657   1.000   4.038
 2191SOL     OW 6391   2.303   0.822   4.999
 2191SOL    HW1 6392   2.356   0.861   5.074
 2191SOL    HW2 6393   2.261   0.737   5.028
 2192SOL     OW 6394   3.112   0.405   4.995
 2192SOL    HW1 6395   3.142   0.485   5.046
 2192SOL    HW2 6396   3.016   0.417   4.967
 2193SOL     OW 6397   2.226   1.134   4.207
 2193SOL    HW1 6398   2.220   1.206   4.139
 2193SOL    HW2 6399   2.200   1.047   4.166
 2194SOL     OW 6400   2.400   0.529   4.563
 2194SOL    HW1 6401   2.421   0.579   4.479
 2194SOL    HW2 6402   2.459   0.561   4.637
 2195SOL     OW 6403   3.076   1.335   4.117
 2195SOL    HW1 6404   3.128   1.412   4.154
 2195SOL    HW2 6405   2.978   1.351   4.129
 2196SOL     OW 6406   3.149   1.455   4.890
 2196SOL    HW1 6407   3.208   1.459   4.970
 2196SOL    HW2 6408   3.094   1.371   4.893
 2197SOL     OW 6409   3.449   0.634   4.189
 2197SOL    HW1 6410   3.390   0.684   4.253
 2197SOL    HW2 6411   3.503   0.698   4.136
 2198SOL     OW 6412   2.240   1.549   5.033
 2198SOL    HW1 6413   2.210   1.505   4.949
 2198SOL    HW2 6414   2.314   1.613   5.013
 2199SOL     OW 6415   2.469   0.880   4.759
 2199SOL    HW1 6416   2.499   0.974   4.748
 2199SOL    HW2 6417   2.413   0.873   4.842
 2200SOL     OW 6418   3.244   0.846   4.729
 2200SOL    HW1 6419   3.146   0.826   4.726
 2200SOL    HW2 6420   3.296   0.760   4.725
 2201SOL     OW 6421   3.084   0.512   3.991
 2201SOL    HW1 6422   3.102   0.433   4.049
 2201SOL    HW2 6423   3.017   0.572   4.036
 2202SOL     OW 6424   2.176   0.228   4.982
 2202SOL    HW1 6425   2.153   0.212   5.078
 2202SOL    HW2 6426   2.172   0.142   4.932
 2203SOL     OW 6427   1.900   1.263   5.022
 2203SOL    HW1 6428   1.973   1.205   5.059
 2203SOL    HW2 6429   1.897   1.349   5.073
 2204SOL     OW 6430   2.556   0.628   4.761
 2204SOL    HW1 6431   2.649   0.615   4.726
 2204SOL    HW2 6432   2.528   0.723   4.746
 2205SOL     OW 6433   2.177   0.052   4.324
 2205SOL    HW1 6434   2.149   0.143   4.354
 2205SOL    HW2 6435   2.206   5.085   4.403
 2206SOL     OW 6436   3.435   0.386   4.084
 2206SOL    HW1 6437   3.487   0.317   4.134
 2206SOL    HW2 6438   3.435   0.472   4.135
 2207SOL     OW 6439   2.887   0.754   4.705
 2207SOL    HW1 6440   2.876   0.766   4.803
 2207SOL    HW2 6441   2.862   0.660   4.680
 2208SOL     OW 6442   3.387   0.244   3.858
 2208SOL    HW1 6443   3.290   0.259   3.841
 2208SOL    HW2 6444   3.414   0.292   3.942
 2209SOL     OW 6445   3.163   0.834   3.745
 2209SOL    HW1 6446   3.212   0.748   3.763
 2209SOL    HW2 6447   3.187   0.867   3.654
 2210SOL     OW 6448   2.934   1.361   4.572
 2210SOL    HW1 6449   2.944   1.285   4.509
 2210SOL    HW2 6450   2.991   1.438   4.542
 2211SOL     OW 6451   2.198   0.814   4.682
 2211SOL    HW1 6452   2.298   0.818   4.682
 2211SOL    HW2 6453   2.169   0.724   4.716
 2212SOL     OW 6454   2.180   0.547   4.731
 2212SOL    HW1 6455   2.137   0.457   4.739
 2212SOL    HW2 6456   2.250   0.544   4.660
 2213SOL     OW 6457   2.991   0.234   0.095
 2213SOL    HW1 6458   2.995   0.286   0.180
 2213SOL    HW2 6459   3.024   0.291   0.019
 2214SOL     OW 6460   1.870   1.319   3.902
 2214SOL    HW1 6461   1.778   1.342   3.870
 2214SOL    HW2 6462   1.869   1.228   3.943
 2215SOL     OW 6463   1.957   1.763   4.667
 2215SOL    HW1 6464   1.921   1.690   4.609
 2215SOL    HW2 6465   2.048   1.789   4.636
 2216SOL     OW 6466   2.345   1.585   4.642
 2216SOL    HW1 6467   2.415   1.654   4.659
 2216SOL    HW2 6468   2.379   1.518   4.576
 2217SOL     OW 6469   2.839   0.785   4.983
 2217SOL    HW1 6470   2.894   0.852   5.032
 2217SOL    HW2 6471   2.742   0.806   4.994
 2218SOL     OW 6472   1.902   0.532   4.848
 2218SOL    HW1 6473   1.957   0.503   4.770
 2218SOL    HW2 6474   1.962   0.545   4.928
 2219SOL     OW 6475   2.664   0.578   4.079
 2219SOL    HW1 6476   2.679   0.495   4.025
 2219SOL    HW2 6477   2.591   0.632   4.037
 2220SOL     OW 6478   3.517   0.606   4.917
 2220SOL    HW1 6479   3.506   0.536   4.988
 2220SOL    HW2 6480   3.607   0.595   4.875
 2221SOL     OW 6481   2.562   0.460   4.981
 2221SOL    HW1 6482   2.513   0.378   4.952
 2221SOL    HW2 6483   2.543   0.534   4.916
 2222SOL     OW 6484   2.757   1.660   0.019
 2222SOL    HW1 6485   2.760   1.722   5.027
 2222SOL    HW2 6486   2.815   1.696   0.092
 2223SOL     OW 6487   2.307   0.501   3.939
 2223SOL    HW1 6488   2.369   0.579   3.945
 2223SOL    HW2 6489   2.214   0.534   3.927
 2224SOL     OW 6490   3.116   1.005   4.909
 2224SOL    HW1 6491   3.184   0.973   4.844
 2224SOL    HW2 6492   3.078   1.093   4.878
 2225SOL     OW 6493   3.174   0.849   4.012
 2225SOL    HW1 6494   3.090   0.820   4.058
 2225SOL    HW2 6495   3.158   0.854   3.914
 2226SOL     OW 6496   3.612   1.734   4.850
 2226SOL    HW1 6497   3.690   1.761   4.794
 2226SOL    HW2 6498   3.592   1.637   4.835
 2227SOL     OW 6499   3.124   1.719   4.872
 2227SOL    HW1 6500   3.196   1.752   4.812
 2227SOL    HW2 6501   3.129   1.619   4.878
 2228SOL     OW 6502   1.943   1.237   4.757
 2228SOL    HW1 6503   1.916   1.245   4.853
 2228SOL    HW2 6504   1.871   1.190   4.706
 2229SOL     OW 6505   3.561   0.148   4.177
 2229SOL    HW1 6506   3.649   0.154   4.130
 2229SOL    HW2 6507   3.572   0.096   4.262
 2230SOL     OW 6508   3.223   1.580   4.209
 2230SOL    HW1 6509   3.279   1.594   4.127
 2230SOL    HW2 6510   3.179   1.666   4.235
 2231SOL     OW 6511   3.135   0.936   4.375
 2231SOL    HW1 6512   3.208   0.874   4.403
 2231SOL    HW2 6513   3.175   1.014   4.327
 2232SOL     OW 6514   2.526   1.613   3.889
 2232SOL    HW1 6515   2.548   1.633   3.794
 2232SOL    HW2 6516   2.470   1.530   3.893
 2233SOL     OW 6517   3.491   1.779   0.023
 2233SOL    HW1 6518   3.554   1.758   5.034
 2233SOL    HW2 6519   3.521   1.863   0.068
 2234SOL     OW 6520   3.716   0.167   4.708
 2234SOL    HW1 6521   3.726   0.073   4.675
 2234SOL    HW2 6522   3.632   0.207   4.670
 2235SOL     OW 6523   2.103   0.293   4.437
 2235SOL    HW1 6524   2.023   0.342   4.401
 2235SOL    HW2 6525   2.112   0.312   4.535
 2236SOL     OW 6526   3.058   1.612   3.736
 2236SOL    HW1 6527   3.062   1.515   3.759
 2236SOL    HW2 6528   2.994   1.625   3.659
 2237SOL     OW 6529   2.655   1.042   5.079
 2237SOL    HW1 6530   2.687   1.085   4.995
 2237SOL    HW2 6531   2.714   1.070   0.068
 2238SOL     OW 6532   2.780   0.907   3.989
 2238SOL    HW1 6533   2.854   0.943   3.933
 2238SOL    HW2 6534   2.814   0.832   4.045
 2239SOL     OW 6535   3.397   1.635   3.747
 2239SOL    HW1 6536   3.297   1.629   3.742
 2239SOL    HW2 6537   3.435   1.634   3.655
 2240SOL     OW 6538   2.921   1.131   4.432
 2240SOL    HW1 6539   2.845   1.076   4.468
 2240SOL    HW2 6540   2.989   1.070   4.391
 2241SOL     OW 6541   2.887   0.222   4.693
 2241SOL    HW1 6542   2.881   0.176   4.605
 2241SOL    HW2 6543   2.906   0.156   4.765
 2242SOL     OW 6544   2.481   1.491   4.207
 2242SOL    HW1 6545   2.528   1.437   4.138
 2242SOL    HW2 6546   2.397   1.530   4.168
 2243SOL     OW 6547   3.586   0.416   0.013
 2243SOL    HW1 6548   3.643   0.422   0.096
 2243SOL    HW2 6549   3.620   0.343   5.042
 2244SOL     OW 6550   2.108   1.390   4.009
 2244SOL    HW1 6551   2.011   1.379   3.987
 2244SOL    HW2 6552   2.118   1.416   4.105
 2245SOL     OW 6553   1.941   0.361   3.740
 2245SOL    HW1 6554   1.843   0.379   3.729
 2245SOL    HW2 6555   1.994   0.430   3.691
 2246SOL     OW 6556   1.938   0.204   4.079
 2246SOL    HW1 6557   1.936   0.261   3.997
 2246SOL    HW2 6558   2.008   0.133   4.069
 2247SOL     OW 6559   3.065   1.342   3.835
 2247SOL    HW1 6560   2.976   1.297   3.840
 2247SOL    HW2 6561   3.101   1.354   3.928
 2248SOL     OW 6562   3.372   1.784   4.709
 2248SOL    HW1 6563   3.403   1.831   4.626
 2248SOL    HW2 6564   3.448   1.776   4.773
 2249SOL     OW 6565   3.315   1.266   0.290
 2249SOL    HW1 6566   3.223   1.253   0.326
 2249SOL    HW2 6567   3.359   1.177   0.277
 2250SOL     OW 6568   3.530   0.889   4.970
 2250SOL    HW1 6569   3.515   0.793   4.947
 2250SOL    HW2 6570   3.504   0.947   4.893
 2251SOL     OW 6571   3.095   0.309   4.180
 2251SOL    HW1 6572   3.159   0.232   4.178
 2251SOL    HW2 6573   3.118   0.368   4.257
 2252SOL     OW 6574   2.452   0.739   4.370
 2252SOL    HW1 6575   2.493   0.830   4.368
 2252SOL    HW2 6576   2.364   0.741   4.322
 2253SOL     OW 6577   3.634   0.916   0.133
 2253SOL    HW1 6578   3.658   1.012   0.144
 2253SOL    HW2 6579   3.594   0.901   0.042
 2254SOL     OW 6580   2.718   1.359   3.765
 2254SOL    HW1 6581   2.688   1.372   3.859
 2254SOL    HW2 6582   2.738   1.448   3.724
 2255SOL     OW 6583   2.518   1.791   4.666
 2255SOL    HW1 6584   2.506   1.890   4.652
 2255SOL    HW2 6585   2.614   1.767   4.650
 2256SOL     OW 6586   2.744   0.961   4.562
 2256SOL    HW1 6587   2.783   0.876   4.599
 2256SOL    HW2 6588   2.709   1.016   4.637
 2257SOL     OW 6589   2.963   1.001   3.808
 2257SOL    HW1 6590   2.918   1.050   3.734
 2257SOL    HW2 6591   3.029   0.937   3.771
 2258SOL     OW 6592   3.732   1.532   4.555
 2258SOL    HW1 6593   3.632   1.534   4.549
 2258SOL    HW2 6594   3.760   1.464   4.622
 2259SOL     OW 6595   1.951   1.234   4.394
 2259SOL    HW1 6596   1.924   1.186   4.478
 2259SOL    HW2 6597   2.042   1.203   4.366
 2260SOL     OW 6598   3.682   0.210   4.971
 2260SOL    HW1 6599   3.642   0.127   5.009
 2260SOL    HW2 6600   3.694   0.199   4.872
 2261SOL     OW 6601   2.290   0.419   4.249
 2261SOL    HW1 6602   2.348   0.366   4.187
 2261SOL    HW2 6603   2.250   0.358   4.318
 2262SOL     OW 6604   3.561   1.477   4.818
 2262SOL    HW1 6605   3.476   1.444   4.778
 2262SOL    HW2 6606   3.579   1.428   4.904
 2263SOL     OW 6607   2.660   1.598   4.429
 2263SOL    HW1 6608   2.663   1.607   4.330
 2263SOL    HW2 6609   2.583   1.540   4.455
 2264SOL     OW 6610   3.268   0.198   4.889
 2264SOL    HW1 6611   3.350   0.181   4.945
 2264SOL    HW2 6612   3.211   0.267   4.934
 2265SOL     OW 6613   2.909   0.028   4.887
 2265SOL    HW1 6614   2.816   5.086   4.910
 2265SOL    HW2 6615   2.973   5.078   4.954
 2266SOL     OW 6616   2.643   1.329   4.040
 2266SOL    HW1 6617   2.613   1.233   4.034
 2266SOL    HW2 6618   2.719   1.336   4.105
 2267SOL     OW 6619   3.137   0.017   3.912
 2267SOL    HW1 6620   3.192   5.040   3.858
 2267SOL    HW2 6621   3.059   5.057   3.952
 2268SOL     OW 6622   3.131   0.473   4.409
 2268SOL    HW1 6623   3.067   0.549   4.403
 2268SOL    HW2 6624   3.162   0.463   4.504
 2269SOL     OW 6625   3.483   0.277   4.638
 2269SOL    HW1 6626   3.419   0.201   4.635
 2269SOL    HW2 6627   3.481   0.327   4.552
 2270SOL     OW 6628   1.902   1.068   4.034
 2270SOL    HW1 6629   2.001   1.062   4.019
 2270SOL    HW2 6630   1.864   0.975   4.041
 2271SOL     OW 6631   2.734   1.664   4.049
 2271SOL    HW1 6632   2.650   1.640   4.001
 2271SOL    HW2 6633   2.715   1.736   4.115
 2272SOL     OW 6634   2.083   2.495   0.101
 2272SOL    HW1 6635   1.994   2.511   0.142
 2272SOL    HW2 6636   2.075   2.502   0.001
 2273SOL     OW 6637   2.087   2.152   0.996
 2273SOL    HW1 6638   2.118   2.123   1.087
 2273SOL    HW2 6639   2.001   2.106   0.974
 2274SOL     OW 6640   1.860   2.257   0.609
 2274SOL    HW1 6641   1.777   2.276   0.662
 2274SOL    HW2 6642   1.845   2.175   0.554
 2275SOL     OW 6643   2.423   3.167   1.194
 2275SOL    HW1 6644   2.327   3.149   1.172
 2275SOL    HW2 6645   2.436   3.264   1.212
 2276SOL     OW 6646   3.419   3.388   0.720
 2276SOL    HW1 6647   3.384   3.357   0.808
 2276SOL    HW2 6648   3.346   3.382   0.651
 2277SOL     OW 6649   2.977   2.562   0.693
 2277SOL    HW1 6650   3.026   2.646   0.671
 2277SOL    HW2 6651   2.943   2.567   0.787
 2278SOL     OW 6652   3.657   2.424   0.228
 2278SOL    HW1 6653   3.593   2.448   0.154
 2278SOL    HW2 6654   3.609   2.370   0.297
 2279SOL     OW 6655   2.590   3.027   1.021
 2279SOL    HW1 6656   2.522   3.069   1.082
 2279SOL    HW2 6657   2.641   3.099   0.975
 2280SOL     OW 6658   2.735   2.622   1.802
 2280SOL    HW1 6659   2.689   2.683   1.866
 2280SOL    HW2 6660   2.764   2.674   1.721
 2281SOL     OW 6661   2.560   2.885   0.645
 2281SOL    HW1 6662   2.623   2.854   0.715
 2281SOL    HW2 6663   2.478   2.923   0.688
 2282SOL     OW 6664   2.544   3.021   1.792
 2282SOL    HW1 6665   2.597   3.103   1.814
 2282SOL    HW2 6666   2.452   3.048   1.763
 2283SOL     OW 6667   2.174   3.286   1.084
 2283SOL    HW1 6668   2.100   3.236   1.038
 2283SOL    HW2 6669   2.229   3.333   1.015
 2284SOL     OW 6670   3.335   3.368   1.371
 2284SOL    HW1 6671   3.397   3.446   1.380
 2284SOL    HW2 6672   3.262   3.375   1.439
 2285SOL     OW 6673   2.282   2.254   1.515
 2285SOL    HW1 6674   2.369   2.203   1.516
 2285SOL    HW2 6675   2.207   2.190   1.499
 2286SOL     OW 6676   3.449   2.300   0.715
 2286SOL    HW1 6677   3.354   2.315   0.685
 2286SOL    HW2 6678   3.483   2.381   0.761
 2287SOL     OW 6679   2.117   3.587   0.483
 2287SOL    HW1 6680   2.132   3.669   0.539
 2287SOL    HW2 6681   2.184   3.584   0.409
 2288SOL     OW 6682   2.995   3.219   1.692
 2288SOL    HW1 6683   3.049   3.216   1.777
 2288SOL    HW2 6684   2.952   3.131   1.676
 2289SOL     OW 6685   2.120   3.314   0.532
 2289SOL    HW1 6686   2.117   3.414   0.529
 2289SOL    HW2 6687   2.051   3.281   0.596
 2290SOL     OW 6688   2.118   2.948   0.904
 2290SOL    HW1 6689   2.130   2.860   0.949
 2290SOL    HW2 6690   2.067   3.010   0.964
 2291SOL     OW 6691   2.454   3.662   1.408
 2291SOL    HW1 6692   2.381   3.632   1.469
 2291SOL    HW2 6693   2.487   3.752   1.436
 2292SOL     OW 6694   2.427   2.849   0.140
 2292SOL    HW1 6695   2.482   2.885   0.064
 2292SOL    HW2 6696   2.463   2.885   0.226
 2293SOL     OW 6697   3.478   1.976   1.504
 2293SOL    HW1 6698   3.499   2.054   1.445
 2293SOL    HW2 6699   3.463   2.008   1.598
 2294SOL     OW 6700   1.961   2.514   0.557
 2294SOL    HW1 6701   1.936   2.419   0.572
 2294SOL    HW2 6702   1.967   2.562   0.644
 2295SOL     OW 6703   3.725   3.599   0.350
 2295SOL    HW1 6704   3.789   3.565   0.419
 2295SOL    HW2 6705   3.747   3.694   0.328
 2296SOL     OW 6706   1.901   3.404   0.131
 2296SOL    HW1 6707   1.815   3.357   0.110
 2296SOL    HW2 6708   1.884   3.476   0.198
 2297SOL     OW 6709   3.550   2.769   0.629
 2297SOL    HW1 6710   3.624   2.715   0.590
 2297SOL    HW2 6711   3.525   2.843   0.567
 2298SOL     OW 6712   3.538   2.979   0.460
 2298SOL    HW1 6713   3.618   2.992   0.402
 2298SOL    HW2 6714   3.537   3.049   0.531
 2299SOL     OW 6715   1.991   2.618   1.543
 2299SOL    HW1 6716   2.089   2.634   1.544
 2299SOL    HW2 6717   1.943   2.705   1.559
 2300SOL     OW 6718   2.437   3.251   0.752
 2300SOL    HW1 6719   2.404   3.157   0.759
 2300SOL    HW2 6720   2.438   3.279   0.656
 2301SOL     OW 6721   3.158   3.098   1.428
 2301SOL    HW1 6722   3.181   3.030   1.358
 2301SOL    HW2 6723   3.224   3.091   1.503
 2302SOL     OW 6724   2.716   1.861   0.510
 2302SOL    HW1 6725   2.748   1.953   0.490
 2302SOL    HW2 6726   2.618   1.863   0.529
 2303SOL     OW 6727   2.040   2.840   1.242
 2303SOL    HW1 6728   2.135   2.813   1.229
 2303SOL    HW2 6729   1.981   2.762   1.220
 2304SOL     OW 6730   3.369   2.870   0.240
 2304SOL    HW1 6731   3.291   2.816   0.270
 2304SOL    HW2 6732   3.446   2.855   0.303
 2305SOL     OW 6733   3.031   3.665   1.608
 2305SOL    HW1 6734   3.044   3.737   1.540
 2305SOL    HW2 6735   3.055   3.577   1.569
 2306SOL     OW 6736   2.173   2.094   1.769
 2306SOL    HW1 6737   2.226   2.166   1.813
 2306SOL    HW2 6738   2.076   2.105   1.792
 2307SOL     OW 6739   3.318   3.289   0.948
 2307SOL    HW1 6740   3.259   3.312   1.026
 2307SOL    HW2 6741   3.301   3.195   0.919
 2308SOL     OW 6742   3.531   3.593   0.598
 2308SOL    HW1 6743   3.513   3.566   0.504
 2308SOL    HW2 6744   3.493   3.524   0.660
 2309SOL     OW 6745   2.448   2.573   0.287
 2309SOL    HW1 6746   2.461   2.662   0.243
 2309SOL    HW2 6747   2.367   2.576   0.346
 2310SOL     OW 6748   3.130   2.192   0.916
 2310SOL    HW1 6749   3.037   2.165   0.939
 2310SOL    HW2 6750   3.193   2.159   0.986
 2311SOL     OW 6751   3.438   3.528   0.342
 2311SOL    HW1 6752   3.534   3.549   0.322
 2311SOL    HW2 6753   3.394   3.494   0.259
 2312SOL     OW 6754   2.666   2.471   1.465
 2312SOL    HW1 6755   2.643   2.441   1.557
 2312SOL    HW2 6756   2.618   2.415   1.398
 2313SOL     OW 6757   3.264   2.336   1.687
 2313SOL    HW1 6758   3.298   2.405   1.751
 2313SOL    HW2 6759   3.315   2.251   1.700
 2314SOL     OW 6760   2.834   2.738   1.578
 2314SOL    HW1 6761   2.875   2.654   1.542
 2314SOL    HW2 6762   2.777   2.780   1.507
 2315SOL     OW 6763   2.808   2.236   1.231
 2315SOL    HW1 6764   2.723   2.279   1.262
 2315SOL    HW2 6765   2.789   2.174   1.155
 2316SOL     OW 6766   2.894   2.554   0.419
 2316SOL    HW1 6767   2.913   2.570   0.516
 2316SOL    HW2 6768   2.811   2.499   0.410
 2317SOL     OW 6769   1.968   2.654   0.784
 2317SOL    HW1 6770   2.051   2.665   0.839
 2317SOL    HW2 6771   1.910   2.735   0.795
 2318SOL     OW 6772   1.966   3.715   1.570
 2318SOL    HW1 6773   1.987   3.690   1.665
 2318SOL    HW2 6774   1.869   3.700   1.553
 2319SOL     OW 6775   2.737   2.217   0.232
 2319SOL    HW1 6776   2.769   2.277   0.159
 2319SOL    HW2 6777   2.733   2.123   0.198
 2320SOL     OW 6778   3.578   2.465   1.831
 2320SOL    HW1 6779   3.538   2.543   1.784
 2320SOL    HW2 6780   3.604   2.395   1.765
 2321SOL     OW 6781   3.230   3.019   0.576
 2321SOL    HW1 6782   3.316   3.024   0.526
 2321SOL    HW2 6783   3.164   3.082   0.534
 2322SOL     OW 6784   2.408   2.064   0.892
 2322SOL    HW1 6785   2.420   2.071   0.991
 2322SOL    HW2 6786   2.408   2.155   0.851
 2323SOL     OW 6787   2.848   3.289   0.502
 2323SOL    HW1 6788   2.810   3.364   0.448
 2323SOL    HW2 6789   2.859   3.319   0.597
 2324SOL     OW 6790   2.211   3.661   0.854
 2324SOL    HW1 6791   2.249   3.570   0.874
 2324SOL    HW2 6792   2.274   3.731   0.888
 2325SOL     OW 6793   3.657   2.919   0.886
 2325SOL    HW1 6794   3.612   2.900   0.799
 2325SOL    HW2 6795   3.590   2.917   0.960
 2326SOL     OW 6796   3.082   3.414   1.500
 2326SOL    HW1 6797   3.063   3.351   1.574
 2326SOL    HW2 6798   3.039   3.381   1.416
 2327SOL     OW 6799   2.174   2.804   0.252
 2327SOL    HW1 6800   2.260   2.825   0.207
 2327SOL    HW2 6801   2.150   2.708   0.234
 2328SOL     OW 6802   3.342   2.601   0.690
 2328SOL    HW1 6803   3.329   2.577   0.786
 2328SOL    HW2 6804   3.419   2.664   0.681
 2329SOL     OW 6805   2.308   3.124   1.715
 2329SOL    HW1 6806   2.272   3.124   1.622
 2329SOL    HW2 6807   2.234   3.144   1.779
 2330SOL     OW 6808   2.907   3.637   0.217
 2330SOL    HW1 6809   2.887   3.586   0.301
 2330SOL    HW2 6810   2.998   3.613   0.184
 2331SOL     OW 6811   2.033   2.142   1.472
 2331SOL    HW1 6812   1.977   2.215   1.511
 2331SOL    HW2 6813   2.013   2.056   1.520
 2332SOL     OW 6814   3.542   3.275   0.068
 2332SOL    HW1 6815   3.457   3.324   0.048
 2332SOL    HW2 6816   3.524   3.177   0.071
 2333SOL     OW 6817   2.323   3.608   0.302
 2333SOL    HW1 6818   2.373   3.666   0.367
 2333SOL    HW2 6819   2.388   3.548   0.254
 2334SOL     OW 6820   3.270   1.968   0.457
 2334SOL    HW1 6821   3.252   1.928   0.367
 2334SOL    HW2 6822   3.369   1.979   0.470
 2335SOL     OW 6823   2.109   3.664   1.220
 2335SOL    HW1 6824   2.162   3.590   1.261
 2335SOL    HW2 6825   2.074   3.634   1.131
 2336SOL     OW 6826   2.826   3.563   0.900
 2336SOL    HW1 6827   2.918   3.525   0.915
 2336SOL    HW2 6828   2.780   3.510   0.828
 2337SOL     OW 6829   2.224   2.537   0.447
 2337SOL    HW1 6830   2.254   2.444   0.468
 2337SOL    HW2 6831   2.130   2.551   0.478
 2338SOL     OW 6832   3.395   2.104   1.733
 2338SOL    HW1 6833   3.416   2.111   1.830
 2338SOL    HW2 6834   3.332   2.029   1.717
 2339SOL     OW 6835   2.627   2.110   1.717
 2339SOL    HW1 6836   2.704   2.046   1.707
 2339SOL    HW2 6837   2.617   2.133   1.814
 2340SOL     OW 6838   2.752   3.414   1.192
 2340SOL    HW1 6839   2.739   3.383   1.098
 2340SOL    HW2 6840   2.815   3.352   1.239
 2341SOL     OW 6841   3.208   2.446   1.431
 2341SOL    HW1 6842   3.238   2.417   1.521
 2341SOL    HW2 6843   3.247   2.536   1.411
 2342SOL     OW 6844   2.667   3.275   0.925
 2342SOL    HW1 6845   2.757   3.260   0.883
 2342SOL    HW2 6846   2.595   3.259   0.857
 2343SOL     OW 6847   2.793   2.357   0.900
 2343SOL    HW1 6848   2.773   2.345   0.803
 2343SOL    HW2 6849   2.828   2.272   0.938
 2344SOL     OW 6850   2.436   1.908   0.476
 2344SOL    HW1 6851   2.364   1.914   0.545
 2344SOL    HW2 6852   2.428   1.984   0.412
 2345SOL     OW 6853   3.333   3.042   0.022
 2345SOL    HW1 6854   3.348   2.958   0.075
 2345SOL    HW2 6855   3.281   3.107   0.077
 2346SOL     OW 6856   2.158   1.982   0.217
 2346SOL    HW1 6857   2.241   2.037   0.225
 2346SOL    HW2 6858   2.182   1.885   0.213
 2347SOL     OW 6859   2.816   2.107   0.477
 2347SOL    HW1 6860   2.783   2.150   0.393
 2347SOL    HW2 6861   2.914   2.122   0.486
 2348SOL     OW 6862   2.956   2.528   1.462
 2348SOL    HW1 6863   2.890   2.454   1.469
 2348SOL    HW2 6864   3.048   2.491   1.458
 2349SOL     OW 6865   3.089   3.450   0.777
 2349SOL    HW1 6866   3.093   3.516   0.701
 2349SOL    HW2 6867   3.170   3.462   0.835
 2350SOL     OW 6868   2.332   2.996   0.739
 2350SOL    HW1 6869   2.259   2.974   0.804
 2350SOL    HW2 6870   2.295   3.000   0.646
 2351SOL     OW 6871   3.105   3.673   0.612
 2351SOL    HW1 6872   3.168   3.738   0.569
 2351SOL    HW2 6873   3.051   3.720   0.681
 2352SOL     OW 6874   2.889   2.381   0.074
 2352SOL    HW1 6875   2.874   2.470   0.032
 2352SOL    HW2 6876   2.956   2.389   0.147
 2353SOL     OW 6877   1.919   2.416   1.389
 2353SOL    HW1 6878   2.012   2.386   1.365
 2353SOL    HW2 6879   1.925   2.500   1.443
 2354SOL     OW 6880   2.430   2.071   1.162
 2354SOL    HW1 6881   2.482   2.002   1.213
 2354SOL    HW2 6882   2.335   2.069   1.190
 2355SOL     OW 6883   2.756   2.307   0.647
 2355SOL    HW1 6884   2.702   2.366   0.587
 2355SOL    HW2 6885   2.770   2.219   0.603
 2356SOL     OW 6886   2.881   1.936   0.766
 2356SOL    HW1 6887   2.839   1.921   0.677
 2356SOL    HW2 6888   2.865   1.855   0.824
 2357SOL     OW 6889   3.286   3.036   0.875
 2357SOL    HW1 6890   3.219   2.974   0.914
 2357SOL    HW2 6891   3.285   3.027   0.775
 2358SOL     OW 6892   3.314   2.434   1.015
 2358SOL    HW1 6893   3.264   2.347   1.014
 2358SOL    HW2 6894   3.385   2.431   1.085
 2359SOL     OW 6895   3.702   2.687   0.397
 2359SOL    HW1 6896   3.761   2.614   0.431
 2359SOL    HW2 6897   3.686   2.674   0.299
 2360SOL     OW 6898   2.344   3.253   0.139
 2360SOL    HW1 6899   2.273   3.239   0.209
 2360SOL    HW2 6900   2.302   3.291   0.057
 2361SOL     OW 6901   3.548   3.147   0.662
 2361SOL    HW1 6902   3.648   3.151   0.673
 2361SOL    HW2 6903   3.508   3.235   0.687
 2362SOL     OW 6904   3.240   2.412   0.092
 2362SOL    HW1 6905   3.196   2.417   0.182
 2362SOL    HW2 6906   3.305   2.336   0.092
 2363SOL     OW 6907   2.394   2.103   0.293
 2363SOL    HW1 6908   2.480   2.100   0.242
 2363SOL    HW2 6909   2.347   2.189   0.272
 2364SOL     OW 6910   3.619   3.093   1.573
 2364SOL    HW1 6911   3.708   3.047   1.568
 2364SOL    HW2 6912   3.633   3.191   1.589
 2365SOL     OW 6913   2.927   3.215   1.350
 2365SOL    HW1 6914   2.841   3.185   1.392
 2365SOL    HW2 6915   3.004   3.166   1.392
 2366SOL     OW 6916   3.480   3.450   1.633
 2366SOL    HW1 6917   3.474   3.498   1.546
 2366SOL    HW2 6918   3.568   3.401   1.638
 2367SOL     OW 6919   2.985   3.089   1.102
 2367SOL    HW1 6920   2.929   3.113   1.181
 2367SOL    HW2 6921   2.950   3.136   1.021
 2368SOL     OW 6922   3.457   2.968   1.079
 2368SOL    HW1 6923   3.471   3.032   1.154
 2368SOL    HW2 6924   3.399   3.011   1.009
 2369SOL     OW 6925   2.795   1.950   1.399
 2369SOL    HW1 6926   2.822   1.925   1.306
 2369SOL    HW2 6927   2.869   2.001   1.442
 2370SOL     OW 6928   2.861   2.970   1.737
 2370SOL    HW1 6929   2.774   3.008   1.768
 2370SOL    HW2 6930   2.844   2.896   1.672
 2371SOL     OW 6931   2.569   2.923   0.372
 2371SOL    HW1 6932   2.560   2.914   0.472
 2371SOL    HW2 6933   2.649   2.870   0.342
 2372SOL     OW 6934   2.274   2.681   1.265
 2372SOL    HW1 6935   2.358   2.677   1.320
 2372SOL    HW2 6936   2.225   2.594   1.273
 2373SOL     OW 6937   3.113   2.235   1.282
 2373SOL    HW1 6938   3.146   2.316   1.330
 2373SOL    HW2 6939   3.018   2.250   1.253
 2374SOL     OW 6940   1.941   3.432   1.341
 2374SOL    HW1 6941   1.931   3.531   1.327
 2374SOL    HW2 6942   2.039   3.409   1.338
 2375SOL     OW 6943   2.222   3.000   0.489
 2375SOL    HW1 6944   2.227   3.078   0.427
 2375SOL    HW2 6945   2.198   2.917   0.438
 2376SOL     OW 6946   2.400   2.397   0.843
 2376SOL    HW1 6947   2.410   2.473   0.778
 2376SOL    HW2 6948   2.468   2.406   0.916
 2377SOL     OW 6949   3.074   3.181   0.417
 2377SOL    HW1 6950   3.132   3.261   0.433
 2377SOL    HW2 6951   2.981   3.201   0.446
 2378SOL     OW 6952   3.160   3.325   1.166
 2378SOL    HW1 6953   3.225   3.327   1.241
 2378SOL    HW2 6954   3.100   3.245   1.176
 2379SOL     OW 6955   3.426   2.467   0.455
 2379SOL    HW1 6956   3.371   2.498   0.532
 2379SOL    HW2 6957   3.468   2.545   0.410
 2380SOL     OW 6958   2.205   3.381   1.320
 2380SOL    HW1 6959   2.187   3.342   1.230
 2380SOL    HW2 6960   2.301   3.410   1.325
 2381SOL     OW 6961   2.284   2.601   1.563
 2381SOL    HW1 6962   2.361   2.646   1.516
 2381SOL    HW2 6963   2.315   2.515   1.603
 2382SOL     OW 6964   3.473   2.655   1.673
 2382SOL    HW1 6965   3.381   2.693   1.677
 2382SOL    HW2 6966   3.522   2.692   1.594
 2383SOL     OW 6967   2.861   1.952   1.759
 2383SOL    HW1 6968   2.915   2.034   1.779
 2383SOL    HW2 6969   2.914   1.890   1.701
 2384SOL     OW 6970   2.344   1.876   1.743
 2384SOL    HW1 6971   2.312   1.812   1.672
 2384SOL    HW2 6972   2.281   1.953   1.750
 2385SOL     OW 6973   2.456   2.751   1.047
 2385SOL    HW1 6974   2.479   2.848   1.042
 2385SOL    HW2 6975   2.399   2.735   1.128
 2386SOL     OW 6976   3.195   2.703   1.048
 2386SOL    HW1 6977   3.107   2.672   1.013
 2386SOL    HW2 6978   3.260   2.627   1.048
 2387SOL     OW 6979   3.056   2.373   0.296
 2387SOL    HW1 6980   3.081   2.301   0.361
 2387SOL    HW2 6981   3.003   2.443   0.343
 2388SOL     OW 6982   2.165   2.056   1.234
 2388SOL    HW1 6983   2.117   2.094   1.313
 2388SOL    HW2 6984   2.145   1.958   1.226
 2389SOL     OW 6985   1.885   3.168   1.283
 2389SOL    HW1 6986   1.913   3.103   1.354
 2389SOL    HW2 6987   1.894   3.261   1.318
 2390SOL     OW 6988   2.575   2.499   1.033
 2390SOL    HW1 6989   2.662   2.477   0.989
 2390SOL    HW2 6990   2.556   2.596   1.021
 2391SOL     OW 6991   3.630   2.825   1.831
 2391SOL    HW1 6992   3.578   2.776   1.761
 2391SOL    HW2 6993   3.572   2.839   1.911
 2392SOL     OW 6994   2.192   1.956   0.604
 2392SOL    HW1 6995   2.157   2.048   0.623
 2392SOL    HW2 6996   2.196   1.904   0.690
 2393SOL     OW 6997   3.502   2.230   0.360
 2393SOL    HW1 6998   3.517   2.154   0.422
 2393SOL    HW2 6999   3.464   2.307   0.411
 2394SOL     OW 7000   2.891   2.598   0.975
 2394SOL    HW1 7001   2.870   2.616   1.071
 2394SOL    HW2 7002   2.870   2.502   0.953
 2395SOL     OW 7003   2.832   3.430   1.697
 2395SOL    HW1 7004   2.819   3.480   1.611
 2395SOL    HW2 7005   2.881   3.345   1.678
 2396SOL     OW 7006   3.728   3.360   1.586
 2396SOL    HW1 7007   3.746   3.381   1.490
 2396SOL    HW2 7008   3.809   3.378   1.641
 2397SOL     OW 7009   3.373   2.134   0.136
 2397SOL    HW1 7010   3.301   2.076   0.175
 2397SOL    HW2 7011   3.433   2.167   0.208
 2398SOL     OW 7012   3.167   2.686   0.048
 2398SOL    HW1 7013   3.207   2.595   0.041
 2398SOL    HW2 7014   3.192   2.740   5.054
 2399SOL     OW 7015   2.930   3.220   0.860
 2399SOL    HW1 7016   2.936   3.136   0.806
 2399SOL    HW2 7017   2.996   3.287   0.825
 2400SOL     OW 7018   2.184   2.667   0.965
 2400SOL    HW1 7019   2.284   2.679   0.963
 2400SOL    HW2 7020   2.162   2.573   0.990
 2401SOL     OW 7021   2.184   2.402   1.001
 2401SOL    HW1 7022   2.149   2.308   1.001
 2401SOL    HW2 7023   2.256   2.411   0.933
 2402SOL     OW 7024   3.017   2.240   1.709
 2402SOL    HW1 7025   2.962   2.301   1.767
 2402SOL    HW2 7026   3.111   2.274   1.704
 2403SOL     OW 7027   3.028   2.065   1.494
 2403SOL    HW1 7028   3.018   2.132   1.567
 2403SOL    HW2 7029   3.076   2.107   1.416
 2404SOL     OW 7030   1.972   3.637   0.972
 2404SOL    HW1 7031   1.925   3.562   0.926
 2404SOL    HW2 7032   2.060   3.653   0.928
 2405SOL     OW 7033   2.347   3.432   0.935
 2405SOL    HW1 7034   2.418   3.502   0.943
 2405SOL    HW2 7035   2.375   3.363   0.868
 2406SOL     OW 7036   2.826   2.630   1.240
 2406SOL    HW1 7037   2.890   2.599   1.310
 2406SOL    HW2 7038   2.732   2.606   1.266
 2407SOL     OW 7039   1.878   2.383   1.105
 2407SOL    HW1 7040   1.961   2.363   1.052
 2407SOL    HW2 7041   1.904   2.408   1.199
 2408SOL     OW 7042   2.074   2.375   1.684
 2408SOL    HW1 7043   2.148   2.332   1.631
 2408SOL    HW2 7044   2.036   2.451   1.631
 2409SOL     OW 7045   3.237   2.781   1.659
 2409SOL    HW1 7046   3.259   2.878   1.669
 2409SOL    HW2 7047   3.235   2.758   1.562
 2410SOL     OW 7048   2.665   2.414   0.398
 2410SOL    HW1 7049   2.682   2.340   0.333
 2410SOL    HW2 7050   2.589   2.470   0.366
 2411SOL     OW 7051   3.507   2.484   1.215
 2411SOL    HW1 7052   3.470   2.416   1.277
 2411SOL    HW2 7053   3.584   2.445   1.165
 2412SOL     OW 7054   2.108   3.398   1.726
 2412SOL    HW1 7055   2.101   3.478   1.786
 2412SOL    HW2 7056   2.104   3.315   1.782
 2413SOL     OW 7057   2.550   2.341   1.254
 2413SOL    HW1 7058   2.494   2.262   1.229
 2413SOL    HW2 7059   2.551   2.406   1.178
 2414SOL     OW 7060   2.768   3.549   1.460
 2414SOL    HW1 7061   2.759   3.519   1.365
 2414SOL    HW2 7062   2.777   3.648   1.463
 2415SOL     OW 7063   2.303   2.343   0.206
 2415SOL    HW1 7064   2.375   2.410   0.228
 2415SOL    HW2 7065   2.216   2.391   0.191
 2416SOL     OW 7066   1.964   2.991   1.460
 2416SOL    HW1 7067   1.981   2.948   1.549
 2416SOL    HW2 7068   1.992   2.930   1.387
 2417SOL     OW 7069   3.170   2.913   1.219
 2417SOL    HW1 7070   3.191   2.841   1.154
 2417SOL    HW2 7071   3.096   2.971   1.183
 2418SOL     OW 7072   3.168   2.721   0.312
 2418SOL    HW1 7073   3.089   2.680   0.357
 2418SOL    HW2 7074   3.160   2.710   0.213
 2419SOL     OW 7075   3.611   3.608   1.142
 2419SOL    HW1 7076   3.686   3.633   1.081
 2419SOL    HW2 7077   3.587   3.512   1.127
 2420SOL     OW 7078   3.099   3.586   1.111
 2420SOL    HW1 7079   3.192   3.615   1.087
 2420SOL    HW2 7080   3.099   3.488   1.130
 2421SOL     OW 7081   1.956   3.123   1.030
 2421SOL    HW1 7082   1.929   3.140   1.125
 2421SOL    HW2 7083   1.886   3.068   0.985
 2422SOL     OW 7084   2.560   3.513   1.741
 2422SOL    HW1 7085   2.533   3.604   1.712
 2422SOL    HW2 7086   2.657   3.498   1.721
 2423SOL     OW 7087   2.717   1.961   0.151
 2423SOL    HW1 7088   2.744   1.977   0.056
 2423SOL    HW2 7089   2.783   1.900   0.194
 2424SOL     OW 7090   3.561   1.999   0.496
 2424SOL    HW1 7091   3.632   1.996   0.427
 2424SOL    HW2 7092   3.554   1.910   0.541
 2425SOL     OW 7093   3.216   3.427   0.509
 2425SOL    HW1 7094   3.293   3.435   0.445
 2425SOL    HW2 7095   3.174   3.517   0.522
 2426SOL     OW 7096   2.021   3.649   1.829
 2426SOL    HW1 7097   1.963   3.583   1.877
 2426SOL    HW2 7098   2.073   3.702   1.896
 2427SOL     OW 7099   3.132   2.776   0.634
 2427SOL    HW1 7100   3.210   2.715   0.647
 2427SOL    HW2 7101   3.164   2.865   0.600
 2428SOL     OW 7102   2.654   3.141   1.425
 2428SOL    HW1 7103   2.629   3.198   1.504
 2428SOL    HW2 7104   2.576   3.137   1.362
 2429SOL     OW 7105   2.522   3.472   0.184
 2429SOL    HW1 7106   2.583   3.491   0.107
 2429SOL    HW2 7107   2.479   3.382   0.172
 2430SOL     OW 7108   3.497   3.581   1.392
 2430SOL    HW1 7109   3.541   3.593   1.303
 2430SOL    HW2 7110   3.473   3.670   1.430
 2431SOL     OW 7111   3.717   2.032   0.956
 2431SOL    HW1 7112   3.741   1.936   0.939
 2431SOL    HW2 7113   3.628   2.051   0.914
 2432SOL     OW 7114   2.109   2.190   0.702
 2432SOL    HW1 7115   2.020   2.225   0.674
 2432SOL    HW2 7116   2.117   2.198   0.802
 2433SOL     OW 7117   3.080   3.476   0.067
 2433SOL    HW1 7118   3.070   3.381   0.096
 2433SOL    HW2 7119   3.041   3.488   5.063
 2434SOL     OW 7120   2.690   2.872   1.400
 2434SOL    HW1 7121   2.732   2.865   1.309
 2434SOL    HW2 7122   2.681   2.968   1.426
 2435SOL     OW 7123   2.782   2.789   0.273
 2435SOL    HW1 7124   2.858   2.820   0.216
 2435SOL    HW2 7125   2.803   2.700   0.313
 2436SOL     OW 7126   3.328   3.419   0.004
 2436SOL    HW1 7127   3.239   3.446   0.040
 2436SOL    HW2 7128   3.392   3.496   0.010
 2437SOL     OW 7129   2.198   3.128   1.472
 2437SOL    HW1 7130   2.202   3.211   1.417
 2437SOL    HW2 7131   2.110   3.084   1.460
 2438SOL     OW 7132   3.477   3.166   1.276
 2438SOL    HW1 7133   3.561   3.155   1.329
 2438SOL    HW2 7134   3.418   3.234   1.321
 2439SOL     OW 7135   2.916   2.971   0.736
 2439SOL    HW1 7136   2.837   2.917   0.768
 2439SOL    HW2 7137   2.976   2.912   0.682
 2440SOL     OW 7138   2.887   2.093   0.982
 2440SOL    HW1 7139   2.876   2.051   0.892
 2440SOL    HW2 7140   2.894   2.021   1.052
 2441SOL     OW 7141   2.466   3.338   0.488
 2441SOL    HW1 7142   2.529   3.302   0.419
 2441SOL    HW2 7143   2.393   3.389   0.442
 2442SOL     OW 7144   3.587   2.225   1.376
 2442SOL    HW1 7145   3.642   2.308   1.370
 2442SOL    HW2 7146   3.623   2.156   1.313
 2443SOL     OW 7147   2.116   3.228   0.286
 2443SOL    HW1 7148   2.038   3.265   0.237
 2443SOL    HW2 7149   2.116   3.262   0.380
 2444SOL     OW 7150   1.977   2.931   1.722
 2444SOL    HW1 7151   1.884   2.924   1.758
 2444SOL    HW2 7152   2.038   2.871   1.774
 2445SOL     OW 7153   2.550   2.047   1.473
 2445SOL    HW1 7154   2.640   2.019   1.439
 2445SOL    HW2 7155   2.559   2.077   1.568
 2446SOL     OW 7156   3.314   2.730   1.395
 2446SOL    HW1 7157   3.264   2.793   1.335
 2446SOL    HW2 7158   3.411   2.755   1.395
 2447SOL     OW 7159   1.905   2.020   0.302
 2447SOL    HW1 7160   1.872   2.111   0.280
 2447SOL    HW2 7161   2.001   2.012   0.274
 2448SOL     OW 7162   3.039   3.223   0.149
 2448SOL    HW1 7163   2.942   3.215   0.127
 2448SOL    HW2 7164   3.054   3.200   0.245
 2449SOL     OW 7165   2.502   2.670   1.398
 2449SOL    HW1 7166   2.547   2.757   1.415
 2449SOL    HW2 7167   2.561   2.595   1.430
 2450SOL     OW 7168   3.368   3.640   0.978
 2450SOL    HW1 7169   3.410   3.663   0.891
 2450SOL    HW2 7170   3.439   3.611   1.043
 2451SOL     OW 7171   2.588   2.397   1.705
 2451SOL    HW1 7172   2.637   2.461   1.766
 2451SOL    HW2 7173   2.609   2.303   1.732
 2452SOL     OW 7174   3.342   3.049   1.624
 2452SOL    HW1 7175   3.325   3.051   1.722
 2452SOL    HW2 7176   3.439   3.067   1.607
 2453SOL     OW 7177   2.234   3.595   1.560
 2453SOL    HW1 7178   2.148   3.643   1.543
 2453SOL    HW2 7179   2.215   3.507   1.604
 2454SOL     OW 7180   3.586   2.744   1.215
 2454SOL    HW1 7181   3.547   2.652   1.210
 2454SOL    HW2 7182   3.529   2.808   1.163
 2455SOL     OW 7183   3.086   2.182   0.486
 2455SOL    HW1 7184   3.151   2.107   0.477
 2455SOL    HW2 7185   3.113   2.240   0.564
 2456SOL     OW 7186   2.442   2.610   0.667
 2456SOL    HW1 7187   2.497   2.692   0.653
 2456SOL    HW2 7188   2.376   2.601   0.593
 2457SOL     OW 7189   3.624   2.232   1.639
 2457SOL    HW1 7190   3.608   2.237   1.540
 2457SOL    HW2 7191   3.544   2.190   1.683
 2458SOL     OW 7192   3.592   2.801   1.480
 2458SOL    HW1 7193   3.603   2.899   1.496
 2458SOL    HW2 7194   3.623   2.778   1.388
 2459SOL     OW 7195   2.776   3.217   0.061
 2459SOL    HW1 7196   2.714   3.205   0.138
 2459SOL    HW2 7197   2.763   3.308   0.021
 2460SOL     OW 7198   2.506   3.660   0.917
 2460SOL    HW1 7199   2.490   3.756   0.893
 2460SOL    HW2 7200   2.604   3.641   0.913
 2461SOL     OW 7201   2.728   2.801   0.842
 2461SOL    HW1 7202   2.781   2.725   0.879
 2461SOL    HW2 7203   2.703   2.864   0.916
 2462SOL     OW 7204   2.961   2.853   0.082
 2462SOL    HW1 7205   2.975   2.937   0.029
 2462SOL    HW2 7206   3.039   2.792   0.069
 2463SOL     OW 7207   3.696   3.438   0.863
 2463SOL    HW1 7208   3.618   3.421   0.803
 2463SOL    HW2 7209   3.721   3.353   0.910
 2464SOL     OW 7210   2.090   3.169   1.868
 2464SOL    HW1 7211   2.029   3.102   1.827
 2464SOL    HW2 7212   2.069   3.180   1.965
 2465SOL     OW 7213   1.953   3.119   0.671
 2465SOL    HW1 7214   1.970   3.060   0.750
 2465SOL    HW2 7215   2.004   3.084   0.592
 2466SOL     OW 7216   2.526   3.270   1.623
 2466SOL    HW1 7217   2.451   3.211   1.650
 2466SOL    HW2 7218   2.516   3.359   1.669
 2467SOL     OW 7219   3.677   2.031   1.221
 2467SOL    HW1 7220   3.686   1.932   1.230
 2467SOL    HW2 7221   3.693   2.058   1.126
 2468SOL     OW 7222   2.292   2.276   0.503
 2468SOL    HW1 7223   2.345   2.204   0.458
 2468SOL    HW2 7224   2.244   2.238   0.582
 2469SOL     OW 7225   3.528   3.362   1.096
 2469SOL    HW1 7226   3.457   3.338   1.030
 2469SOL    HW2 7227   3.535   3.290   1.165
 2470SOL     OW 7228   2.181   2.403   1.288
 2470SOL    HW1 7229   2.244   2.361   1.354
 2470SOL    HW2 7230   2.210   2.380   1.195
 2471SOL     OW 7231   2.689   3.463   0.671
 2471SOL    HW1 7232   2.696   3.479   0.573
 2471SOL    HW2 7233   2.604   3.415   0.692
 2472SOL     OW 7234   3.291   2.125   1.113
 2472SOL    HW1 7235   3.346   2.050   1.149
 2472SOL    HW2 7236   3.230   2.159   1.185
 2473SOL     OW 7237   2.879   1.873   1.148
 2473SOL    HW1 7238   2.815   1.815   1.097
 2473SOL    HW2 7239   2.968   1.828   1.153
 2474SOL     OW 7240   2.651   3.196   0.315
 2474SOL    HW1 7241   2.599   3.111   0.324
 2474SOL    HW2 7242   2.726   3.197   0.381
 2475SOL     OW 7243   2.472   3.431   1.260
 2475SOL    HW1 7244   2.470   3.516   1.312
 2475SOL    HW2 7245   2.565   3.415   1.226
 2476SOL     OW 7246   3.192   1.885   0.207
 2476SOL    HW1 7247   3.248   1.861   0.128
 2476SOL    HW2 7248   3.120   1.949   0.179
 2477SOL     OW 7249   3.148   2.344   0.695
 2477SOL    HW1 7250   3.083   2.420   0.688
 2477SOL    HW2 7251   3.134   2.297   0.782
 2478SOL     OW 7252   3.462   2.070   0.860
 2478SOL    HW1 7253   3.382   2.064   0.920
 2478SOL    HW2 7254   3.451   2.147   0.797
 2479SOL     OW 7255   1.898   2.946   0.304
 2479SOL    HW1 7256   1.989   2.959   0.266
 2479SOL    HW2 7257   1.889   2.852   0.339
 2480SOL     OW 7258   2.731   3.494   0.379
 2480SOL    HW1 7259   2.659   3.482   0.311
 2480SOL    HW2 7260   2.726   3.587   0.416
 2481SOL     OW 7261   2.064   2.404   1.964
 2481SOL    HW1 7262   1.999   2.466   2.008
 2481SOL    HW2 7263   2.077   2.433   1.869
 2482SOL     OW 7264   1.837   2.143   2.506
 2482SOL    HW1 7265   1.828   2.239   2.530
 2482SOL    HW2 7266   1.760   2.115   2.449
 2483SOL     OW 7267   2.435   3.170   3.072
 2483SOL    HW1 7268   2.339   3.151   3.051
 2483SOL    HW2 7269   2.446   3.268   3.087
 2484SOL     OW 7270   3.408   3.394   2.579
 2484SOL    HW1 7271   3.372   3.364   2.667
 2484SOL    HW2 7272   3.335   3.394   2.511
 2485SOL     OW 7273   2.560   3.033   2.878
 2485SOL    HW1 7274   2.516   3.077   2.956
 2485SOL    HW2 7275   2.619   3.099   2.831
 2486SOL     OW 7276   2.737   2.613   3.651
 2486SOL    HW1 7277   2.719   2.670   3.732
 2486SOL    HW2 7278   2.770   2.670   3.576
 2487SOL     OW 7279   2.564   3.023   3.668
 2487SOL    HW1 7280   2.609   3.107   3.697
 2487SOL    HW2 7281   2.474   3.046   3.629
 2488SOL     OW 7282   2.178   3.296   2.924
 2488SOL    HW1 7283   2.129   3.232   2.866
 2488SOL    HW2 7284   2.236   3.355   2.867
 2489SOL     OW 7285   3.330   3.362   3.242
 2489SOL    HW1 7286   3.389   3.443   3.240
 2489SOL    HW2 7287   3.256   3.376   3.308
 2490SOL     OW 7288   2.307   2.242   3.392
 2490SOL    HW1 7289   2.383   2.177   3.397
 2490SOL    HW2 7290   2.221   2.193   3.377
 2491SOL     OW 7291   2.088   3.558   2.353
 2491SOL    HW1 7292   2.112   3.643   2.399
 2491SOL    HW2 7293   2.131   3.555   2.263
 2492SOL     OW 7294   2.989   3.219   3.541
 2492SOL    HW1 7295   3.053   3.218   3.618
 2492SOL    HW2 7296   2.936   3.134   3.541
 2493SOL     OW 7297   2.095   3.296   2.410
 2493SOL    HW1 7298   2.101   3.394   2.397
 2493SOL    HW2 7299   2.036   3.275   2.488
 2494SOL     OW 7300   2.447   3.670   3.268
 2494SOL    HW1 7301   2.377   3.634   3.331
 2494SOL    HW2 7302   2.479   3.758   3.301
 2495SOL     OW 7303   2.528   2.836   1.975
 2495SOL    HW1 7304   2.528   2.905   1.903
 2495SOL    HW2 7305   2.541   2.880   2.064
 2496SOL     OW 7306   3.476   1.978   3.350
 2496SOL    HW1 7307   3.503   2.051   3.288
 2496SOL    HW2 7308   3.475   2.013   3.444
 2497SOL     OW 7309   3.718   3.602   2.221
 2497SOL    HW1 7310   3.779   3.573   2.294
 2497SOL    HW2 7311   3.738   3.697   2.197
 2498SOL     OW 7312   1.890   3.467   1.980
 2498SOL    HW1 7313   1.876   3.369   1.996
 2498SOL    HW2 7314   1.868   3.518   2.064
 2499SOL     OW 7315   1.982   2.623   3.448
 2499SOL    HW1 7316   2.077   2.632   3.416
 2499SOL    HW2 7317   1.956   2.706   3.497
 2500SOL     OW 7318   2.442   3.269   2.617
 2500SOL    HW1 7319   2.397   3.180   2.625
 2500SOL    HW2 7320   2.448   3.295   2.521
 2501SOL     OW 7321   3.147   3.104   3.287
 2501SOL    HW1 7322   3.167   3.034   3.219
 2501SOL    HW2 7323   3.202   3.088   3.369
 2502SOL     OW 7324   2.681   1.853   2.333
 2502SOL    HW1 7325   2.722   1.933   2.290
 2502SOL    HW2 7326   2.584   1.869   2.349
 2503SOL     OW 7327   2.007   2.817   3.144
 2503SOL    HW1 7328   2.097   2.775   3.158
 2503SOL    HW2 7329   1.945   2.749   3.103
 2504SOL     OW 7330   3.421   2.817   2.022
 2504SOL    HW1 7331   3.351   2.750   1.997
 2504SOL    HW2 7332   3.431   2.818   2.122
 2505SOL     OW 7333   3.039   3.668   3.466
 2505SOL    HW1 7334   3.049   3.742   3.400
 2505SOL    HW2 7335   3.059   3.581   3.421
 2506SOL     OW 7336   2.189   2.096   3.672
 2506SOL    HW1 7337   2.245   2.178   3.684
 2506SOL    HW2 7338   2.093   2.118   3.690
 2507SOL     OW 7339   3.303   3.317   2.819
 2507SOL    HW1 7340   3.248   3.337   2.901
 2507SOL    HW2 7341   3.294   3.221   2.795
 2508SOL     OW 7342   3.531   3.598   2.458
 2508SOL    HW1 7343   3.510   3.570   2.364
 2508SOL    HW2 7344   3.497   3.529   2.522
 2509SOL     OW 7345   3.154   2.208   2.804
 2509SOL    HW1 7346   3.059   2.177   2.807
 2509SOL    HW2 7347   3.205   2.163   2.877
 2510SOL     OW 7348   3.442   3.518   2.161
 2510SOL    HW1 7349   3.537   3.538   2.184
 2510SOL    HW2 7350   3.435   3.499   2.063
 2511SOL     OW 7351   2.730   2.383   3.324
 2511SOL    HW1 7352   2.690   2.373   3.415
 2511SOL    HW2 7353   2.671   2.441   3.268
 2512SOL     OW 7354   3.268   2.335   3.526
 2512SOL    HW1 7355   3.266   2.395   3.606
 2512SOL    HW2 7356   3.330   2.258   3.544
 2513SOL     OW 7357   2.833   2.752   3.433
 2513SOL    HW1 7358   2.879   2.668   3.403
 2513SOL    HW2 7359   2.783   2.792   3.356
 2514SOL     OW 7360   2.827   2.253   3.088
 2514SOL    HW1 7361   2.774   2.291   3.163
 2514SOL    HW2 7362   2.807   2.303   3.004
 2515SOL     OW 7363   1.954   3.703   3.423
 2515SOL    HW1 7364   1.974   3.670   3.515
 2515SOL    HW2 7365   1.855   3.698   3.407
 2516SOL     OW 7366   2.696   2.180   1.963
 2516SOL    HW1 7367   2.715   2.277   1.978
 2516SOL    HW2 7368   2.724   2.127   2.043
 2517SOL     OW 7369   3.587   2.459   3.685
 2517SOL    HW1 7370   3.554   2.539   3.635
 2517SOL    HW2 7371   3.610   2.387   3.620
 2518SOL     OW 7372   2.846   3.321   2.358
 2518SOL    HW1 7373   2.823   3.391   2.291
 2518SOL    HW2 7374   2.825   3.355   2.450
 2519SOL     OW 7375   2.207   3.668   2.721
 2519SOL    HW1 7376   2.246   3.578   2.737
 2519SOL    HW2 7377   2.275   3.738   2.741
 2520SOL     OW 7378   3.082   3.415   3.351
 2520SOL    HW1 7379   3.060   3.355   3.428
 2520SOL    HW2 7380   3.045   3.377   3.266
 2521SOL     OW 7381   2.328   3.119   3.574
 2521SOL    HW1 7382   2.290   3.116   3.482
 2521SOL    HW2 7383   2.255   3.134   3.640
 2522SOL     OW 7384   2.959   3.618   2.100
 2522SOL    HW1 7385   2.879   3.574   2.141
 2522SOL    HW2 7386   2.978   3.577   2.011
 2523SOL     OW 7387   2.044   2.146   3.359
 2523SOL    HW1 7388   1.973   2.217   3.361
 2523SOL    HW2 7389   2.007   2.062   3.397
 2524SOL     OW 7390   3.483   3.222   1.953
 2524SOL    HW1 7391   3.458   3.315   1.923
 2524SOL    HW2 7392   3.415   3.157   1.918
 2525SOL     OW 7393   2.319   3.597   2.173
 2525SOL    HW1 7394   2.363   3.641   2.251
 2525SOL    HW2 7395   2.389   3.563   2.110
 2526SOL     OW 7396   3.306   1.918   2.300
 2526SOL    HW1 7397   3.284   1.904   2.204
 2526SOL    HW2 7398   3.401   1.949   2.309
 2527SOL     OW 7399   2.111   3.664   3.093
 2527SOL    HW1 7400   2.167   3.598   3.143
 2527SOL    HW2 7401   2.091   3.628   3.002
 2528SOL     OW 7402   2.810   3.581   2.757
 2528SOL    HW1 7403   2.898   3.542   2.783
 2528SOL    HW2 7404   2.768   3.523   2.686
 2529SOL     OW 7405   3.400   2.107   3.590
 2529SOL    HW1 7406   3.401   2.109   3.690
 2529SOL    HW2 7407   3.330   2.043   3.559
 2530SOL     OW 7408   2.490   1.967   1.950
 2530SOL    HW1 7409   2.588   1.950   1.939
 2530SOL    HW2 7410   2.441   1.931   1.871
 2531SOL     OW 7411   2.648   2.124   3.609
 2531SOL    HW1 7412   2.732   2.071   3.619
 2531SOL    HW2 7413   2.588   2.107   3.687
 2532SOL     OW 7414   2.754   3.395   3.053
 2532SOL    HW1 7415   2.739   3.369   2.958
 2532SOL    HW2 7416   2.816   3.330   3.096
 2533SOL     OW 7417   3.213   2.452   3.276
 2533SOL    HW1 7418   3.244   2.415   3.364
 2533SOL    HW2 7419   3.261   2.537   3.257
 2534SOL     OW 7420   2.669   3.284   2.789
 2534SOL    HW1 7421   2.757   3.264   2.746
 2534SOL    HW2 7422   2.597   3.282   2.719
 2535SOL     OW 7423   2.793   2.342   2.826
 2535SOL    HW1 7424   2.815   2.402   2.750
 2535SOL    HW2 7425   2.843   2.256   2.818
 2536SOL     OW 7426   2.415   1.915   2.368
 2536SOL    HW1 7427   2.327   1.910   2.415
 2536SOL    HW2 7428   2.410   1.986   2.297
 2537SOL     OW 7429   3.298   3.028   1.886
 2537SOL    HW1 7430   3.336   2.956   1.943
 2537SOL    HW2 7431   3.219   3.070   1.932
 2538SOL     OW 7432   2.141   1.900   2.052
 2538SOL    HW1 7433   2.184   1.985   2.024
 2538SOL    HW2 7434   2.211   1.836   2.085
 2539SOL     OW 7435   2.957   2.533   3.327
 2539SOL    HW1 7436   2.894   2.455   3.327
 2539SOL    HW2 7437   3.050   2.500   3.310
 2540SOL     OW 7438   3.073   3.441   2.667
 2540SOL    HW1 7439   3.075   3.497   2.584
 2540SOL    HW2 7440   3.165   3.436   2.706
 2541SOL     OW 7441   2.315   3.034   2.602
 2541SOL    HW1 7442   2.311   2.947   2.651
 2541SOL    HW2 7443   2.289   3.020   2.506
 2542SOL     OW 7444   3.124   3.673   2.464
 2542SOL    HW1 7445   3.174   3.728   2.398
 2542SOL    HW2 7446   3.097   3.731   2.541
 2543SOL     OW 7447   2.922   2.446   1.865
 2543SOL    HW1 7448   2.855   2.513   1.832
 2543SOL    HW2 7449   2.909   2.431   1.963
 2544SOL     OW 7450   1.906   2.423   3.280
 2544SOL    HW1 7451   1.985   2.432   3.218
 2544SOL    HW2 7452   1.897   2.506   3.335
 2545SOL     OW 7453   2.851   1.929   2.622
 2545SOL    HW1 7454   2.826   1.897   2.531
 2545SOL    HW2 7455   2.850   1.851   2.686
 2546SOL     OW 7456   3.281   3.058   2.759
 2546SOL    HW1 7457   3.252   2.972   2.801
 2546SOL    HW2 7458   3.348   3.039   2.687
 2547SOL     OW 7459   3.300   2.439   2.856
 2547SOL    HW1 7460   3.254   2.351   2.864
 2547SOL    HW2 7461   3.377   2.442   2.921
 2548SOL     OW 7462   2.343   3.297   1.974
 2548SOL    HW1 7463   2.264   3.276   2.030
 2548SOL    HW2 7464   2.348   3.234   1.896
 2549SOL     OW 7465   3.527   3.151   2.542
 2549SOL    HW1 7466   3.623   3.146   2.513
 2549SOL    HW2 7467   3.495   3.245   2.533
 2550SOL     OW 7468   2.389   2.078   2.168
 2550SOL    HW1 7469   2.433   2.034   2.090
 2550SOL    HW2 7470   2.354   2.168   2.141
 2551SOL     OW 7471   3.603   3.090   3.432
 2551SOL    HW1 7472   3.683   3.037   3.458
 2551SOL    HW2 7473   3.620   3.187   3.448
 2552SOL     OW 7474   2.919   3.210   3.192
 2552SOL    HW1 7475   2.835   3.177   3.235
 2552SOL    HW2 7476   2.998   3.172   3.240
 2553SOL     OW 7477   3.483   3.474   3.487
 2553SOL    HW1 7478   3.476   3.513   3.395
 2553SOL    HW2 7479   3.563   3.415   3.493
 2554SOL     OW 7480   2.986   3.088   2.954
 2554SOL    HW1 7481   2.932   3.115   3.034
 2554SOL    HW2 7482   2.946   3.129   2.872
 2555SOL     OW 7483   3.453   2.945   2.980
 2555SOL    HW1 7484   3.462   3.031   3.029
 2555SOL    HW2 7485   3.490   2.955   2.887
 2556SOL     OW 7486   2.794   1.956   3.271
 2556SOL    HW1 7487   2.818   1.942   3.175
 2556SOL    HW2 7488   2.866   2.008   3.316
 2557SOL     OW 7489   2.852   2.982   3.593
 2557SOL    HW1 7490   2.761   3.005   3.626
 2557SOL    HW2 7491   2.845   2.906   3.528
 2558SOL     OW 7492   2.605   2.955   2.233
 2558SOL    HW1 7493   2.582   2.945   2.329
 2558SOL    HW2 7494   2.690   2.905   2.213
 2559SOL     OW 7495   2.237   2.692   3.177
 2559SOL    HW1 7496   2.319   2.699   3.232
 2559SOL    HW2 7497   2.220   2.597   3.152
 2560SOL     OW 7498   3.093   2.231   3.155
 2560SOL    HW1 7499   3.127   2.317   3.191
 2560SOL    HW2 7500   2.998   2.242   3.125
 2561SOL     OW 7501   1.936   3.418   3.187
 2561SOL    HW1 7502   1.925   3.517   3.180
 2561SOL    HW2 7503   2.033   3.396   3.195
 2562SOL     OW 7504   3.083   3.237   2.229
 2562SOL    HW1 7505   3.137   3.304   2.280
 2562SOL    HW2 7506   2.991   3.233   2.267
 2563SOL     OW 7507   3.146   3.332   3.040
 2563SOL    HW1 7508   3.214   3.322   3.112
 2563SOL    HW2 7509   3.096   3.246   3.030
 2564SOL     OW 7510   2.203   3.367   3.180
 2564SOL    HW1 7511   2.194   3.342   3.084
 2564SOL    HW2 7512   2.297   3.394   3.199
 2565SOL     OW 7513   2.304   2.597   3.496
 2565SOL    HW1 7514   2.363   2.644   3.430
 2565SOL    HW2 7515   2.334   2.503   3.507
 2566SOL     OW 7516   3.494   2.652   3.532
 2566SOL    HW1 7517   3.397   2.678   3.535
 2566SOL    HW2 7518   3.538   2.699   3.455
 2567SOL     OW 7519   2.877   1.983   3.633
 2567SOL    HW1 7520   2.948   2.054   3.632
 2567SOL    HW2 7521   2.908   1.904   3.581
 2568SOL     OW 7522   2.358   1.889   3.610
 2568SOL    HW1 7523   2.323   1.830   3.537
 2568SOL    HW2 7524   2.294   1.965   3.624
 2569SOL     OW 7525   2.466   2.785   2.945
 2569SOL    HW1 7526   2.503   2.871   2.910
 2569SOL    HW2 7527   2.409   2.804   3.025
 2570SOL     OW 7528   3.189   2.733   2.868
 2570SOL    HW1 7529   3.123   2.663   2.839
 2570SOL    HW2 7530   3.278   2.690   2.883
 2571SOL     OW 7531   2.189   2.040   3.139
 2571SOL    HW1 7532   2.140   2.076   3.219
 2571SOL    HW2 7533   2.152   1.951   3.115
 2572SOL     OW 7534   1.877   3.152   3.135
 2572SOL    HW1 7535   1.910   3.090   3.207
 2572SOL    HW2 7536   1.912   3.244   3.152
 2573SOL     OW 7537   3.632   2.819   3.711
 2573SOL    HW1 7538   3.591   2.767   3.637
 2573SOL    HW2 7539   3.566   2.830   3.785
 2574SOL     OW 7540   2.159   1.923   2.476
 2574SOL    HW1 7541   2.076   1.980   2.478
 2574SOL    HW2 7542   2.170   1.877   2.564
 2575SOL     OW 7543   2.832   3.433   3.555
 2575SOL    HW1 7544   2.815   3.483   3.470
 2575SOL    HW2 7545   2.873   3.344   3.535
 2576SOL     OW 7546   3.714   3.342   3.454
 2576SOL    HW1 7547   3.731   3.361   3.358
 2576SOL    HW2 7548   3.796   3.365   3.507
 2577SOL     OW 7549   2.202   2.764   3.678
 2577SOL    HW1 7550   2.281   2.792   3.732
 2577SOL    HW2 7551   2.230   2.692   3.614
 2578SOL     OW 7552   3.441   2.125   1.994
 2578SOL    HW1 7553   3.349   2.120   2.032
 2578SOL    HW2 7554   3.507   2.144   2.067
 2579SOL     OW 7555   3.192   2.679   1.906
 2579SOL    HW1 7556   3.118   2.612   1.917
 2579SOL    HW2 7557   3.201   2.704   1.810
 2580SOL     OW 7558   2.919   3.216   2.704
 2580SOL    HW1 7559   2.960   3.140   2.656
 2580SOL    HW2 7560   2.978   3.297   2.696
 2581SOL     OW 7561   3.027   2.222   3.569
 2581SOL    HW1 7562   2.972   2.279   3.629
 2581SOL    HW2 7563   3.117   2.264   3.557
 2582SOL     OW 7564   3.029   2.060   3.356
 2582SOL    HW1 7565   3.028   2.117   3.438
 2582SOL    HW2 7566   3.067   2.112   3.279
 2583SOL     OW 7567   1.859   3.168   2.061
 2583SOL    HW1 7568   1.771   3.193   2.021
 2583SOL    HW2 7569   1.856   3.073   2.091
 2584SOL     OW 7570   1.952   3.627   2.800
 2584SOL    HW1 7571   1.915   3.552   2.746
 2584SOL    HW2 7572   2.045   3.649   2.770
 2585SOL     OW 7573   2.346   3.449   2.788
 2585SOL    HW1 7574   2.417   3.514   2.813
 2585SOL    HW2 7575   2.386   3.376   2.732
 2586SOL     OW 7576   2.835   2.669   3.127
 2586SOL    HW1 7577   2.890   2.618   3.194
 2586SOL    HW2 7578   2.760   2.611   3.095
 2587SOL     OW 7579   2.091   2.385   3.566
 2587SOL    HW1 7580   2.131   2.327   3.494
 2587SOL    HW2 7581   2.040   2.460   3.524
 2588SOL     OW 7582   3.247   2.765   3.512
 2588SOL    HW1 7583   3.262   2.864   3.515
 2588SOL    HW2 7584   3.226   2.737   3.418
 2589SOL     OW 7585   2.742   2.405   2.097
 2589SOL    HW1 7586   2.710   2.335   2.162
 2589SOL    HW2 7587   2.694   2.491   2.115
 2590SOL     OW 7588   3.508   2.475   3.033
 2590SOL    HW1 7589   3.477   2.420   3.111
 2590SOL    HW2 7590   3.594   2.437   2.999
 2591SOL     OW 7591   2.111   3.394   3.574
 2591SOL    HW1 7592   2.092   3.474   3.631
 2591SOL    HW2 7593   2.116   3.313   3.632
 2592SOL     OW 7594   2.769   3.555   3.327
 2592SOL    HW1 7595   2.768   3.512   3.237
 2592SOL    HW2 7596   2.774   3.655   3.317
 2593SOL     OW 7597   2.295   2.293   2.033
 2593SOL    HW1 7598   2.365   2.363   2.040
 2593SOL    HW2 7599   2.205   2.336   2.023
 2594SOL     OW 7600   1.969   2.987   3.339
 2594SOL    HW1 7601   1.975   2.938   3.426
 2594SOL    HW2 7602   1.983   2.922   3.263
 2595SOL     OW 7603   3.156   2.922   3.087
 2595SOL    HW1 7604   3.189   2.857   3.018
 2595SOL    HW2 7605   3.085   2.979   3.047
 2596SOL     OW 7606   3.610   3.606   2.993
 2596SOL    HW1 7607   3.687   3.632   2.934
 2596SOL    HW2 7608   3.584   3.512   2.974
 2597SOL     OW 7609   3.113   3.598   2.974
 2597SOL    HW1 7610   3.193   3.623   2.920
 2597SOL    HW2 7611   3.117   3.501   2.998
 2598SOL     OW 7612   2.563   3.509   3.614
 2598SOL    HW1 7613   2.529   3.600   3.587
 2598SOL    HW2 7614   2.654   3.495   3.576
 2599SOL     OW 7615   3.596   1.968   2.381
 2599SOL    HW1 7616   3.659   1.966   2.304
 2599SOL    HW2 7617   3.589   1.877   2.421
 2600SOL     OW 7618   3.227   3.445   2.348
 2600SOL    HW1 7619   3.284   3.464   2.268
 2600SOL    HW2 7620   3.182   3.529   2.378
 2601SOL     OW 7621   2.027   3.630   3.687
 2601SOL    HW1 7622   1.970   3.571   3.744
 2601SOL    HW2 7623   2.079   3.693   3.745
 2602SOL     OW 7624   2.655   3.129   3.277
 2602SOL    HW1 7625   2.637   3.171   3.366
 2602SOL    HW2 7626   2.573   3.135   3.220
 2603SOL     OW 7627   2.531   3.489   2.008
 2603SOL    HW1 7628   2.553   3.508   1.913
 2603SOL    HW2 7629   2.464   3.414   2.012
 2604SOL     OW 7630   3.486   3.587   3.241
 2604SOL    HW1 7631   3.532   3.592   3.152
 2604SOL    HW2 7632   3.475   3.679   3.279
 2605SOL     OW 7633   3.703   2.038   2.821
 2605SOL    HW1 7634   3.721   1.942   2.803
 2605SOL    HW2 7635   3.612   2.062   2.789
 2606SOL     OW 7636   3.038   3.476   1.881
 2606SOL    HW1 7637   3.049   3.382   1.912
 2606SOL    HW2 7638   2.972   3.480   1.806
 2607SOL     OW 7639   2.688   2.869   3.236
 2607SOL    HW1 7640   2.740   2.835   3.157
 2607SOL    HW2 7641   2.682   2.969   3.232
 2608SOL     OW 7642   2.814   2.819   2.149
 2608SOL    HW1 7643   2.883   2.843   2.081
 2608SOL    HW2 7644   2.770   2.733   2.123
 2609SOL     OW 7645   3.426   3.481   1.888
 2609SOL    HW1 7646   3.328   3.501   1.892
 2609SOL    HW2 7647   3.455   3.474   1.793
 2610SOL     OW 7648   2.204   3.132   3.338
 2610SOL    HW1 7649   2.198   3.211   3.277
 2610SOL    HW2 7650   2.116   3.084   3.339
 2611SOL     OW 7651   3.475   3.170   3.147
 2611SOL    HW1 7652   3.527   3.128   3.221
 2611SOL    HW2 7653   3.414   3.239   3.184
 2612SOL     OW 7654   2.914   2.098   2.824
 2612SOL    HW1 7655   2.893   2.046   2.741
 2612SOL    HW2 7656   2.904   2.039   2.904
 2613SOL     OW 7657   2.482   3.356   2.363
 2613SOL    HW1 7658   2.539   3.312   2.293
 2613SOL    HW2 7659   2.407   3.405   2.318
 2614SOL     OW 7660   3.582   2.233   3.242
 2614SOL    HW1 7661   3.639   2.315   3.244
 2614SOL    HW2 7662   3.622   2.165   3.181
 2615SOL     OW 7663   2.098   3.250   2.137
 2615SOL    HW1 7664   2.003   3.229   2.118
 2615SOL    HW2 7665   2.111   3.261   2.235
 2616SOL     OW 7666   1.978   2.865   3.573
 2616SOL    HW1 7667   1.901   2.858   3.636
 2616SOL    HW2 7668   2.062   2.835   3.619
 2617SOL     OW 7669   2.543   2.038   3.373
 2617SOL    HW1 7670   2.624   2.002   3.327
 2617SOL    HW2 7671   2.569   2.075   3.462
 2618SOL     OW 7672   1.934   2.172   1.860
 2618SOL    HW1 7673   1.854   2.193   1.804
 2618SOL    HW2 7674   1.981   2.257   1.884
 2619SOL     OW 7675   3.334   2.723   3.234
 2619SOL    HW1 7676   3.276   2.794   3.192
 2619SOL    HW2 7677   3.427   2.731   3.200
 2620SOL     OW 7678   1.912   2.028   2.163
 2620SOL    HW1 7679   1.899   2.116   2.116
 2620SOL    HW2 7680   1.993   1.983   2.128
 2621SOL     OW 7681   3.064   3.210   1.966
 2621SOL    HW1 7682   2.980   3.157   1.961
 2621SOL    HW2 7683   3.088   3.226   2.062
 2622SOL     OW 7684   2.471   2.699   3.309
 2622SOL    HW1 7685   2.540   2.772   3.315
 2622SOL    HW2 7686   2.509   2.621   3.259
 2623SOL     OW 7687   3.359   3.663   2.811
 2623SOL    HW1 7688   3.397   3.731   2.748
 2623SOL    HW2 7689   3.433   3.613   2.855
 2624SOL     OW 7690   2.591   2.397   3.560
 2624SOL    HW1 7691   2.638   2.471   3.610
 2624SOL    HW2 7692   2.613   2.309   3.603
 2625SOL     OW 7693   3.325   3.034   3.503
 2625SOL    HW1 7694   3.318   3.041   3.603
 2625SOL    HW2 7695   3.418   3.056   3.475
 2626SOL     OW 7696   2.232   3.595   3.426
 2626SOL    HW1 7697   2.149   3.648   3.409
 2626SOL    HW2 7698   2.208   3.507   3.466
 2627SOL     OW 7699   3.586   2.734   3.104
 2627SOL    HW1 7700   3.568   2.644   3.063
 2627SOL    HW2 7701   3.553   2.805   3.043
 2628SOL     OW 7702   3.628   2.233   3.511
 2628SOL    HW1 7703   3.606   2.245   3.414
 2628SOL    HW2 7704   3.553   2.186   3.556
 2629SOL     OW 7705   3.617   2.807   3.361
 2629SOL    HW1 7706   3.612   2.906   3.353
 2629SOL    HW2 7707   3.627   2.767   3.270
 2630SOL     OW 7708   2.728   3.202   1.898
 2630SOL    HW1 7709   2.691   3.221   1.989
 2630SOL    HW2 7710   2.753   3.288   1.854
 2631SOL     OW 7711   2.504   3.685   2.796
 2631SOL    HW1 7712   2.488   3.783   2.781
 2631SOL    HW2 7713   2.602   3.666   2.792
 2632SOL     OW 7714   3.003   2.872   1.965
 2632SOL    HW1 7715   2.958   2.906   1.882
 2632SOL    HW2 7716   3.080   2.814   1.939
 2633SOL     OW 7717   3.712   3.418   2.718
 2633SOL    HW1 7718   3.621   3.395   2.683
 2633SOL    HW2 7719   3.755   3.336   2.756
 2634SOL     OW 7720   2.111   3.180   3.738
 2634SOL    HW1 7721   2.037   3.118   3.712
 2634SOL    HW2 7722   2.107   3.199   3.836
 2635SOL     OW 7723   2.541   3.267   3.489
 2635SOL    HW1 7724   2.464   3.205   3.508
 2635SOL    HW2 7725   2.525   3.354   3.534
 2636SOL     OW 7726   3.681   2.034   3.089
 2636SOL    HW1 7727   3.679   1.934   3.094
 2636SOL    HW2 7728   3.695   2.062   2.994
 2637SOL     OW 7729   3.534   3.357   2.953
 2637SOL    HW1 7730   3.455   3.337   2.895
 2637SOL    HW2 7731   3.542   3.286   3.023
 2638SOL     OW 7732   2.126   2.431   3.127
 2638SOL    HW1 7733   2.162   2.356   3.182
 2638SOL    HW2 7734   2.093   2.395   3.040
 2639SOL     OW 7735   2.695   3.465   2.538
 2639SOL    HW1 7736   2.698   3.543   2.476
 2639SOL    HW2 7737   2.606   3.420   2.530
 2640SOL     OW 7738   3.271   2.089   3.008
 2640SOL    HW1 7739   3.298   2.005   3.054
 2640SOL    HW2 7740   3.205   2.138   3.066
 2641SOL     OW 7741   2.888   1.872   3.009
 2641SOL    HW1 7742   2.823   1.797   2.994
 2641SOL    HW2 7743   2.981   1.837   2.999
 2642SOL     OW 7744   2.652   3.218   2.172
 2642SOL    HW1 7745   2.631   3.120   2.174
 2642SOL    HW2 7746   2.723   3.238   2.239
 2643SOL     OW 7747   2.467   3.435   3.124
 2643SOL    HW1 7748   2.461   3.524   3.169
 2643SOL    HW2 7749   2.563   3.417   3.099
 2644SOL     OW 7750   3.196   1.861   2.047
 2644SOL    HW1 7751   3.205   1.833   1.952
 2644SOL    HW2 7752   3.105   1.834   2.081
 2645SOL     OW 7753   3.088   2.259   2.551
 2645SOL    HW1 7754   3.085   2.356   2.525
 2645SOL    HW2 7755   3.133   2.249   2.639
 2646SOL     OW 7756   3.445   2.072   2.741
 2646SOL    HW1 7757   3.390   2.069   2.825
 2646SOL    HW2 7758   3.415   2.147   2.684
 2647SOL     OW 7759   2.734   3.510   2.189
 2647SOL    HW1 7760   2.662   3.489   2.124
 2647SOL    HW2 7761   2.709   3.591   2.242
 2648SOL     OW 7762   2.091   2.498   3.861
 2648SOL    HW1 7763   1.993   2.492   3.879
 2648SOL    HW2 7764   2.108   2.482   3.764
 2649SOL     OW 7765   2.068   2.159   4.723
 2649SOL    HW1 7766   2.110   2.128   4.808
 2649SOL    HW2 7767   1.986   2.106   4.704
 2650SOL     OW 7768   1.864   2.268   4.335
 2650SOL    HW1 7769   1.781   2.286   4.387
 2650SOL    HW2 7770   1.862   2.175   4.300
 2651SOL     OW 7771   2.405   3.092   4.881
 2651SOL    HW1 7772   2.307   3.110   4.889
 2651SOL    HW2 7773   2.456   3.169   4.920
 2652SOL     OW 7774   3.412   3.390   4.454
 2652SOL    HW1 7775   3.380   3.363   4.545
 2652SOL    HW2 7776   3.335   3.385   4.389
 2653SOL     OW 7777   2.982   2.571   4.435
 2653SOL    HW1 7778   3.030   2.656   4.414
 2653SOL    HW2 7779   2.934   2.581   4.522
 2654SOL     OW 7780   3.626   2.478   3.949
 2654SOL    HW1 7781   3.615   2.482   3.850
 2654SOL    HW2 7782   3.579   2.398   3.986
 2655SOL     OW 7783   2.605   3.003   4.732
 2655SOL    HW1 7784   2.523   3.024   4.786
 2655SOL    HW2 7785   2.642   3.087   4.693
 2656SOL     OW 7786   2.549   2.886   4.374
 2656SOL    HW1 7787   2.611   2.861   4.449
 2656SOL    HW2 7788   2.471   2.937   4.412
 2657SOL     OW 7789   2.173   3.311   4.800
 2657SOL    HW1 7790   2.106   3.252   4.754
 2657SOL    HW2 7791   2.234   3.351   4.731
 2658SOL     OW 7792   3.486   2.327   4.452
 2658SOL    HW1 7793   3.440   2.369   4.373
 2658SOL    HW2 7794   3.459   2.374   4.536
 2659SOL     OW 7795   2.113   3.582   4.231
 2659SOL    HW1 7796   2.140   3.668   4.275
 2659SOL    HW2 7797   2.158   3.575   4.142
 2660SOL     OW 7798   2.112   3.297   4.267
 2660SOL    HW1 7799   2.112   3.396   4.280
 2660SOL    HW2 7800   2.044   3.255   4.328
 2661SOL     OW 7801   2.123   2.974   4.635
 2661SOL    HW1 7802   2.130   2.882   4.674
 2661SOL    HW2 7803   2.060   3.028   4.689
 2662SOL     OW 7804   2.477   3.718   0.049
 2662SOL    HW1 7805   2.441   3.655   0.118
 2662SOL    HW2 7806   2.556   3.766   0.086
 2663SOL     OW 7807   2.436   2.861   3.847
 2663SOL    HW1 7808   2.480   2.909   3.771
 2663SOL    HW2 7809   2.479   2.889   3.933
 2664SOL     OW 7810   1.969   2.514   4.285
 2664SOL    HW1 7811   1.940   2.419   4.298
 2664SOL    HW2 7812   1.966   2.562   4.372
 2665SOL     OW 7813   3.730   3.607   4.072
 2665SOL    HW1 7814   3.793   3.582   4.145
 2665SOL    HW2 7815   3.735   3.706   4.055
 2666SOL     OW 7816   1.901   3.468   3.865
 2666SOL    HW1 7817   1.880   3.373   3.888
 2666SOL    HW2 7818   1.891   3.525   3.947
 2667SOL     OW 7819   3.543   2.789   4.358
 2667SOL    HW1 7820   3.634   2.752   4.343
 2667SOL    HW2 7821   3.514   2.839   4.276
 2668SOL     OW 7822   3.511   2.999   4.152
 2668SOL    HW1 7823   3.604   2.986   4.116
 2668SOL    HW2 7824   3.514   3.065   4.227
 2669SOL     OW 7825   2.459   3.273   4.463
 2669SOL    HW1 7826   2.418   3.183   4.478
 2669SOL    HW2 7827   2.453   3.297   4.366
 2670SOL     OW 7828   2.707   1.866   4.232
 2670SOL    HW1 7829   2.743   1.958   4.219
 2670SOL    HW2 7830   2.607   1.869   4.236
 2671SOL     OW 7831   2.073   2.887   4.985
 2671SOL    HW1 7832   2.158   2.837   4.969
 2671SOL    HW2 7833   1.996   2.823   4.987
 2672SOL     OW 7834   3.415   2.835   3.920
 2672SOL    HW1 7835   3.335   2.780   3.945
 2672SOL    HW2 7836   3.450   2.881   4.002
 2673SOL     OW 7837   3.321   3.280   4.688
 2673SOL    HW1 7838   3.254   3.297   4.760
 2673SOL    HW2 7839   3.303   3.190   4.647
 2674SOL     OW 7840   3.522   3.588   4.300
 2674SOL    HW1 7841   3.498   3.544   4.214
 2674SOL    HW2 7842   3.505   3.526   4.376
 2675SOL     OW 7843   2.442   2.576   4.006
 2675SOL    HW1 7844   2.446   2.667   3.965
 2675SOL    HW2 7845   2.364   2.571   4.068
 2676SOL     OW 7846   3.145   2.185   4.631
 2676SOL    HW1 7847   3.051   2.154   4.646
 2676SOL    HW2 7848   3.203   2.151   4.704
 2677SOL     OW 7849   3.446   3.506   4.020
 2677SOL    HW1 7850   3.543   3.523   4.036
 2677SOL    HW2 7851   3.429   3.501   3.922
 2678SOL     OW 7852   2.856   2.203   4.950
 2678SOL    HW1 7853   2.844   2.274   5.019
 2678SOL    HW2 7854   2.777   2.202   4.889
 2679SOL     OW 7855   2.903   2.534   4.146
 2679SOL    HW1 7856   2.916   2.564   4.240
 2679SOL    HW2 7857   2.814   2.490   4.137
 2680SOL     OW 7858   1.964   2.705   4.505
 2680SOL    HW1 7859   2.043   2.696   4.566
 2680SOL    HW2 7860   1.914   2.788   4.526
 2681SOL     OW 7861   2.736   2.238   3.936
 2681SOL    HW1 7862   2.778   2.291   3.862
 2681SOL    HW2 7863   2.747   2.140   3.916
 2682SOL     OW 7864   3.239   3.030   4.280
 2682SOL    HW1 7865   3.321   3.011   4.227
 2682SOL    HW2 7866   3.178   3.089   4.227
 2683SOL     OW 7867   2.411   2.074   4.620
 2683SOL    HW1 7868   2.411   2.084   4.720
 2683SOL    HW2 7869   2.413   2.164   4.577
 2684SOL     OW 7870   2.840   3.313   4.188
 2684SOL    HW1 7871   2.798   3.378   4.124
 2684SOL    HW2 7872   2.871   3.362   4.269
 2685SOL     OW 7873   2.205   3.670   4.604
 2685SOL    HW1 7874   2.247   3.579   4.609
 2685SOL    HW2 7875   2.268   3.738   4.642
 2686SOL     OW 7876   3.647   2.921   4.579
 2686SOL    HW1 7877   3.598   2.897   4.495
 2686SOL    HW2 7878   3.584   2.921   4.656
 2687SOL     OW 7879   2.179   2.812   3.987
 2687SOL    HW1 7880   2.266   2.835   3.943
 2687SOL    HW2 7881   2.140   2.730   3.945
 2688SOL     OW 7882   3.342   2.612   4.434
 2688SOL    HW1 7883   3.343   2.562   4.520
 2688SOL    HW2 7884   3.426   2.665   4.425
 2689SOL     OW 7885   2.961   3.621   3.963
 2689SOL    HW1 7886   2.880   3.581   4.005
 2689SOL    HW2 7887   2.976   3.580   3.873
 2690SOL     OW 7888   3.494   3.227   3.804
 2690SOL    HW1 7889   3.464   3.318   3.776
 2690SOL    HW2 7890   3.424   3.160   3.780
 2691SOL     OW 7891   2.319   3.602   4.036
 2691SOL    HW1 7892   2.367   3.654   4.105
 2691SOL    HW2 7893   2.384   3.561   3.972
 2692SOL     OW 7894   3.268   1.961   4.152
 2692SOL    HW1 7895   3.266   1.913   4.065
 2692SOL    HW2 7896   3.362   1.984   4.175
 2693SOL     OW 7897   2.119   3.653   4.942
 2693SOL    HW1 7898   2.157   3.591   5.011
 2693SOL    HW2 7899   2.080   3.599   4.867
 2694SOL     OW 7900   2.837   3.538   4.628
 2694SOL    HW1 7901   2.924   3.488   4.620
 2694SOL    HW2 7902   2.771   3.500   4.564
 2695SOL     OW 7903   2.230   2.541   4.199
 2695SOL    HW1 7904   2.266   2.451   4.222
 2695SOL    HW2 7905   2.131   2.542   4.213
 2696SOL     OW 7906   2.509   1.991   3.816
 2696SOL    HW1 7907   2.583   1.934   3.850
 2696SOL    HW2 7908   2.454   1.939   3.750
 2697SOL     OW 7909   2.677   3.246   4.645
 2697SOL    HW1 7910   2.770   3.246   4.607
 2697SOL    HW2 7911   2.611   3.254   4.571
 2698SOL     OW 7912   2.788   2.366   4.622
 2698SOL    HW1 7913   2.753   2.363   4.528
 2698SOL    HW2 7914   2.828   2.277   4.645
 2699SOL     OW 7915   2.433   1.917   4.213
 2699SOL    HW1 7916   2.365   1.924   4.286
 2699SOL    HW2 7917   2.422   1.993   4.150
 2700SOL     OW 7918   3.307   3.040   3.767
 2700SOL    HW1 7919   3.341   2.962   3.819
 2700SOL    HW2 7920   3.219   3.069   3.805
 2701SOL     OW 7921   2.143   1.917   3.914
 2701SOL    HW1 7922   2.189   1.993   3.867
 2701SOL    HW2 7923   2.212   1.858   3.957
 2702SOL     OW 7924   2.810   2.114   4.205
 2702SOL    HW1 7925   2.777   2.171   4.131
 2702SOL    HW2 7926   2.907   2.132   4.221
 2703SOL     OW 7927   3.083   3.438   4.532
 2703SOL    HW1 7928   3.086   3.505   4.457
 2703SOL    HW2 7929   3.171   3.438   4.580
 2704SOL     OW 7930   2.333   3.021   4.459
 2704SOL    HW1 7931   2.261   3.005   4.527
 2704SOL    HW2 7932   2.296   3.006   4.368
 2705SOL     OW 7933   3.112   3.668   4.319
 2705SOL    HW1 7934   3.164   3.733   4.264
 2705SOL    HW2 7935   3.061   3.717   4.390
 2706SOL     OW 7936   2.909   2.391   3.750
 2706SOL    HW1 7937   2.862   2.477   3.727
 2706SOL    HW2 7938   2.985   2.410   3.812
 2707SOL     OW 7939   2.433   2.075   4.894
 2707SOL    HW1 7940   2.476   1.995   4.935
 2707SOL    HW2 7941   2.340   2.086   4.930
 2708SOL     OW 7942   2.722   2.323   4.351
 2708SOL    HW1 7943   2.681   2.376   4.277
 2708SOL    HW2 7944   2.749   2.233   4.316
 2709SOL     OW 7945   2.936   1.898   4.496
 2709SOL    HW1 7946   2.871   1.924   4.424
 2709SOL    HW2 7947   2.903   1.815   4.542
 2710SOL     OW 7948   3.290   3.040   4.580
 2710SOL    HW1 7949   3.257   2.950   4.607
 2710SOL    HW2 7950   3.285   3.050   4.481
 2711SOL     OW 7951   3.379   2.445   4.686
 2711SOL    HW1 7952   3.314   2.370   4.689
 2711SOL    HW2 7953   3.427   2.452   4.773
 2712SOL     OW 7954   3.694   2.684   4.121
 2712SOL    HW1 7955   3.750   2.634   4.187
 2712SOL    HW2 7956   3.674   2.626   4.042
 2713SOL     OW 7957   2.357   3.288   3.872
 2713SOL    HW1 7958   2.272   3.270   3.923
 2713SOL    HW2 7959   2.353   3.241   3.784
 2714SOL     OW 7960   3.536   3.154   4.376
 2714SOL    HW1 7961   3.636   3.155   4.381
 2714SOL    HW2 7962   3.502   3.244   4.406
 2715SOL     OW 7963   3.253   2.454   3.788
 2715SOL    HW1 7964   3.207   2.420   3.870
 2715SOL    HW2 7965   3.352   2.449   3.800
 2716SOL     OW 7966   2.387   2.103   4.027
 2716SOL    HW1 7967   2.436   2.064   3.949
 2716SOL    HW2 7968   2.343   2.188   3.999
 2717SOL     OW 7969   2.986   3.103   4.836
 2717SOL    HW1 7970   2.899   3.111   4.884
 2717SOL    HW2 7971   2.974   3.132   4.740
 2718SOL     OW 7972   3.471   2.975   4.802
 2718SOL    HW1 7973   3.445   2.997   4.896
 2718SOL    HW2 7974   3.425   3.037   4.739
 2719SOL     OW 7975   2.582   2.919   4.076
 2719SOL    HW1 7976   2.569   2.907   4.175
 2719SOL    HW2 7977   2.653   2.857   4.044
 2720SOL     OW 7978   2.307   2.712   5.000
 2720SOL    HW1 7979   2.348   2.752   5.081
 2720SOL    HW2 7980   2.294   2.614   5.014
 2721SOL     OW 7981   3.134   2.271   4.968
 2721SOL    HW1 7982   3.149   2.324   5.051
 2721SOL    HW2 7983   3.036   2.257   4.954
 2722SOL     OW 7984   2.231   2.979   4.213
 2722SOL    HW1 7985   2.232   3.051   4.143
 2722SOL    HW2 7986   2.212   2.891   4.170
 2723SOL     OW 7987   2.402   2.405   4.569
 2723SOL    HW1 7988   2.425   2.463   4.492
 2723SOL    HW2 7989   2.460   2.429   4.647
 2724SOL     OW 7990   3.094   3.214   4.117
 2724SOL    HW1 7991   3.142   3.295   4.150
 2724SOL    HW2 7992   2.997   3.223   4.135
 2725SOL     OW 7993   3.149   3.315   4.891
 2725SOL    HW1 7994   3.210   3.319   4.970
 2725SOL    HW2 7995   3.093   3.232   4.897
 2726SOL     OW 7996   3.438   2.475   4.202
 2726SOL    HW1 7997   3.386   2.534   4.263
 2726SOL    HW2 7998   3.483   2.531   4.132
 2727SOL     OW 7999   2.243   3.413   5.033
 2727SOL    HW1 8000   2.211   3.367   4.950
 2727SOL    HW2 8001   2.320   3.473   5.010
 2728SOL     OW 8002   2.440   2.771   4.751
 2728SOL    HW1 8003   2.486   2.860   4.751
 2728SOL    HW2 8004   2.403   2.753   4.842
 2729SOL     OW 8005   3.245   2.703   4.741
 2729SOL    HW1 8006   3.147   2.683   4.740
 2729SOL    HW2 8007   3.296   2.618   4.727
 2730SOL     OW 8008   3.092   2.382   3.995
 2730SOL    HW1 8009   3.107   2.301   4.053
 2730SOL    HW2 8010   3.025   2.442   4.038
 2731SOL     OW 8011   2.165   2.062   4.965
 2731SOL    HW1 8012   2.146   2.084   5.061
 2731SOL    HW2 8013   2.144   1.966   4.948
 2732SOL     OW 8014   1.916   3.156   5.016
 2732SOL    HW1 8015   1.979   3.087   5.051
 2732SOL    HW2 8016   1.925   3.240   5.070
 2733SOL     OW 8017   2.559   2.514   4.777
 2733SOL    HW1 8018   2.651   2.496   4.741
 2733SOL    HW2 8019   2.527   2.603   4.744
 2734SOL     OW 8020   2.212   1.945   4.363
 2734SOL    HW1 8021   2.164   2.032   4.373
 2734SOL    HW2 8022   2.214   1.897   4.451
 2735SOL     OW 8023   3.454   2.239   4.078
 2735SOL    HW1 8024   3.491   2.164   4.134
 2735SOL    HW2 8025   3.445   2.321   4.135
 2736SOL     OW 8026   2.879   2.608   4.707
 2736SOL    HW1 8027   2.865   2.618   4.806
 2736SOL    HW2 8028   2.860   2.513   4.680
 2737SOL     OW 8029   3.371   2.105   3.852
 2737SOL    HW1 8030   3.302   2.038   3.877
 2737SOL    HW2 8031   3.398   2.157   3.933
 2738SOL     OW 8032   3.142   2.694   3.746
 2738SOL    HW1 8033   3.178   2.604   3.770
 2738SOL    HW2 8034   3.176   2.720   3.655
 2739SOL     OW 8035   2.933   3.212   4.575
 2739SOL    HW1 8036   2.941   3.137   4.510
 2739SOL    HW2 8037   2.993   3.287   4.548
 2740SOL     OW 8038   2.160   2.701   4.701
 2740SOL    HW1 8039   2.258   2.721   4.699
 2740SOL    HW2 8040   2.146   2.606   4.728
 2741SOL     OW 8041   2.182   2.403   4.732
 2741SOL    HW1 8042   2.150   2.308   4.733
 2741SOL    HW2 8043   2.254   2.413   4.663
 2742SOL     OW 8044   3.044   2.095   0.121
 2742SOL    HW1 8045   3.010   2.172   0.175
 2742SOL    HW2 8046   3.053   2.122   0.026
 2743SOL     OW 8047   1.856   3.190   3.926
 2743SOL    HW1 8048   1.770   3.212   3.880
 2743SOL    HW2 8049   1.853   3.096   3.958
 2744SOL     OW 8050   1.945   3.633   4.662
 2744SOL    HW1 8051   1.915   3.555   4.608
 2744SOL    HW2 8052   2.039   3.655   4.639
 2745SOL     OW 8053   2.352   3.450   4.635
 2745SOL    HW1 8054   2.414   3.527   4.649
 2745SOL    HW2 8055   2.393   3.386   4.570
 2746SOL     OW 8056   2.833   2.647   4.990
 2746SOL    HW1 8057   2.895   2.710   5.037
 2746SOL    HW2 8058   2.740   2.682   4.995
 2747SOL     OW 8059   1.901   2.391   4.850
 2747SOL    HW1 8060   1.957   2.367   4.771
 2747SOL    HW2 8061   1.949   2.364   4.934
 2748SOL     OW 8062   2.655   2.431   4.105
 2748SOL    HW1 8063   2.674   2.364   4.033
 2748SOL    HW2 8064   2.576   2.487   4.080
 2749SOL     OW 8065   3.511   2.475   4.923
 2749SOL    HW1 8066   3.490   2.413   4.998
 2749SOL    HW2 8067   3.598   2.448   4.881
 2750SOL     OW 8068   2.552   2.313   4.977
 2750SOL    HW1 8069   2.503   2.237   4.933
 2750SOL    HW2 8070   2.542   2.396   4.922
 2751SOL     OW 8071   2.749   3.514   0.023
 2751SOL    HW1 8072   2.752   3.569   5.026
 2751SOL    HW2 8073   2.805   3.558   0.093
 2752SOL     OW 8074   2.299   2.339   3.924
 2752SOL    HW1 8075   2.373   2.405   3.938
 2752SOL    HW2 8076   2.212   2.388   3.913
 2753SOL     OW 8077   3.129   2.861   4.928
 2753SOL    HW1 8078   3.195   2.822   4.863
 2753SOL    HW2 8079   3.096   2.948   4.893
 2754SOL     OW 8080   3.178   2.716   4.020
 2754SOL    HW1 8081   3.101   2.675   4.070
 2754SOL    HW2 8082   3.155   2.720   3.923
 2755SOL     OW 8083   3.608   3.597   4.845
 2755SOL    HW1 8084   3.685   3.627   4.788
 2755SOL    HW2 8085   3.587   3.502   4.826
 2756SOL     OW 8086   3.129   3.581   4.869
 2756SOL    HW1 8087   3.202   3.613   4.810
 2756SOL    HW2 8088   3.130   3.481   4.873
 2757SOL     OW 8089   1.935   3.124   4.753
 2757SOL    HW1 8090   1.917   3.136   4.851
 2757SOL    HW2 8091   1.859   3.074   4.711
 2758SOL     OW 8092   3.540   1.998   4.213
 2758SOL    HW1 8093   3.618   1.997   4.151
 2758SOL    HW2 8094   3.537   1.913   4.265
 2759SOL     OW 8095   3.225   3.446   4.198
 2759SOL    HW1 8096   3.283   3.468   4.120
 2759SOL    HW2 8097   3.180   3.530   4.230
 2760SOL     OW 8098   3.138   2.790   4.384
 2760SOL    HW1 8099   3.213   2.726   4.403
 2760SOL    HW2 8100   3.175   2.871   4.339
 2761SOL     OW 8101   2.527   3.492   3.883
 2761SOL    HW1 8102   2.547   3.505   3.786
 2761SOL    HW2 8103   2.473   3.408   3.895
 2762SOL     OW 8104   3.496   3.619   0.021
 2762SOL    HW1 8105   3.554   3.604   5.027
 2762SOL    HW2 8106   3.531   3.698   0.072
 2763SOL     OW 8107   3.703   2.025   4.702
 2763SOL    HW1 8108   3.719   1.932   4.670
 2763SOL    HW2 8109   3.616   2.059   4.664
 2764SOL     OW 8110   2.108   2.186   4.441
 2764SOL    HW1 8111   2.029   2.240   4.411
 2764SOL    HW2 8112   2.111   2.185   4.541
 2765SOL     OW 8113   3.033   3.488   3.736
 2765SOL    HW1 8114   3.050   3.393   3.763
 2765SOL    HW2 8115   2.972   3.490   3.657
 2766SOL     OW 8116   2.655   2.909   5.083
 2766SOL    HW1 8117   2.706   2.962   5.016
 2766SOL    HW2 8118   2.702   2.913   0.085
 2767SOL     OW 8119   2.780   2.761   4.001
 2767SOL    HW1 8120   2.849   2.802   3.942
 2767SOL    HW2 8121   2.820   2.683   4.049
 2768SOL     OW 8122   3.418   3.488   3.746
 2768SOL    HW1 8123   3.318   3.499   3.753
 2768SOL    HW2 8124   3.444   3.489   3.650
 2769SOL     OW 8125   2.917   2.979   4.442
 2769SOL    HW1 8126   2.837   2.927   4.472
 2769SOL    HW2 8127   2.992   2.916   4.423
 2770SOL     OW 8128   2.906   2.076   4.689
 2770SOL    HW1 8129   2.918   2.017   4.610
 2770SOL    HW2 8130   2.899   2.021   4.772
 2771SOL     OW 8131   2.475   3.355   4.204
 2771SOL    HW1 8132   2.531   3.307   4.137
 2771SOL    HW2 8133   2.394   3.394   4.159
 2772SOL     OW 8134   3.615   2.271   5.082
 2772SOL    HW1 8135   3.674   2.278   0.076
 2772SOL    HW2 8136   3.624   2.180   5.041
 2773SOL     OW 8137   2.107   3.238   4.006
 2773SOL    HW1 8138   2.010   3.224   3.987
 2773SOL    HW2 8139   2.118   3.264   4.102
 2774SOL     OW 8140   1.955   2.218   3.739
 2774SOL    HW1 8141   1.860   2.208   3.708
 2774SOL    HW2 8142   1.999   2.292   3.689
 2775SOL     OW 8143   1.908   2.034   4.010
 2775SOL    HW1 8144   1.896   2.126   3.971
 2775SOL    HW2 8145   1.992   1.994   3.974
 2776SOL     OW 8146   3.060   3.233   3.847
 2776SOL    HW1 8147   2.966   3.200   3.844
 2776SOL    HW2 8148   3.093   3.234   3.941
 2777SOL     OW 8149   3.374   3.638   4.706
 2777SOL    HW1 8150   3.408   3.677   4.620
 2777SOL    HW2 8151   3.445   3.643   4.775
 2778SOL     OW 8152   3.321   3.131   0.313
 2778SOL    HW1 8153   3.226   3.115   0.338
 2778SOL    HW2 8154   3.363   3.044   0.284
 2779SOL     OW 8155   3.513   2.750   4.972
 2779SOL    HW1 8156   3.506   2.654   4.943
 2779SOL    HW2 8157   3.502   2.810   4.893
 2780SOL     OW 8158   3.075   2.180   4.208
 2780SOL    HW1 8159   3.144   2.110   4.189
 2780SOL    HW2 8160   3.108   2.240   4.281
 2781SOL     OW 8161   2.446   2.605   4.383
 2781SOL    HW1 8162   2.493   2.692   4.366
 2781SOL    HW2 8163   2.361   2.602   4.332
 2782SOL     OW 8164   3.649   2.751   0.128
 2782SOL    HW1 8165   3.669   2.847   0.147
 2782SOL    HW2 8166   3.593   2.745   0.045
 2783SOL     OW 8167   2.712   3.234   3.767
 2783SOL    HW1 8168   2.682   3.246   3.862
 2783SOL    HW2 8169   2.726   3.323   3.725
 2784SOL     OW 8170   2.507   3.668   4.652
 2784SOL    HW1 8171   2.492   3.767   4.648
 2784SOL    HW2 8172   2.604   3.649   4.637
 2785SOL     OW 8173   2.740   2.809   4.569
 2785SOL    HW1 8174   2.787   2.733   4.615
 2785SOL    HW2 8175   2.703   2.871   4.638
 2786SOL     OW 8176   2.948   2.858   3.817
 2786SOL    HW1 8177   2.914   2.917   3.744
 2786SOL    HW2 8178   3.019   2.798   3.780
 2787SOL     OW 8179   3.735   3.404   4.565
 2787SOL    HW1 8180   3.636   3.406   4.554
 2787SOL    HW2 8181   3.760   3.339   4.636
 2788SOL     OW 8182   1.953   3.098   4.397
 2788SOL    HW1 8183   1.930   3.052   4.483
 2788SOL    HW2 8184   2.036   3.058   4.358
 2789SOL     OW 8185   3.678   2.036   4.974
 2789SOL    HW1 8186   3.710   1.942   4.973
 2789SOL    HW2 8187   3.678   2.073   4.881
 2790SOL     OW 8188   2.300   2.288   4.252
 2790SOL    HW1 8189   2.358   2.224   4.202
 2790SOL    HW2 8190   2.256   2.240   4.328
 2791SOL     OW 8191   3.556   3.337   4.809
 2791SOL    HW1 8192   3.469   3.307   4.769
 2791SOL    HW2 8193   3.567   3.296   4.900
 2792SOL     OW 8194   2.671   3.461   4.434
 2792SOL    HW1 8195   2.667   3.489   4.338
 2792SOL    HW2 8196   2.595   3.399   4.453
 2793SOL     OW 8197   3.295   2.111   4.834
 2793SOL    HW1 8198   3.339   2.039   4.887
 2793SOL    HW2 8199   3.240   2.168   4.895
 2794SOL     OW 8200   2.874   1.840   4.866
 2794SOL    HW1 8201   2.846   1.799   4.779
 2794SOL    HW2 8202   2.968   1.816   4.886
 2795SOL     OW 8203   2.640   3.203   4.038
 2795SOL    HW1 8204   2.607   3.109   4.031
 2795SOL    HW2 8205   2.717   3.208   4.102
 2796SOL     OW 8206   3.186   1.887   3.894
 2796SOL    HW1 8207   3.211   1.833   3.814
 2796SOL    HW2 8208   3.098   1.856   3.930
 2797SOL     OW 8209   3.136   2.343   4.414
 2797SOL    HW1 8210   3.073   2.420   4.416
 2797SOL    HW2 8211   3.135   2.296   4.502
 2798SOL     OW 8212   3.463   2.114   4.616
 2798SOL    HW1 8213   3.387   2.121   4.679
 2798SOL    HW2 8214   3.453   2.182   4.543
 2799SOL     OW 8215   1.904   2.942   4.066
 2799SOL    HW1 8216   2.003   2.956   4.060
 2799SOL    HW2 8217   1.883   2.844   4.062
 2800SOL     OW 8218   2.732   3.518   4.057
 2800SOL    HW1 8219   2.652   3.505   3.999
 2800SOL    HW2 8220   2.717   3.596   4.118
 2801SOL     OW 8221   2.088   4.387   0.110
 2801SOL    HW1 8222   1.999   4.379   0.155
 2801SOL    HW2 8223   2.078   4.366   0.013
 2802SOL     OW 8224   2.086   4.006   0.999
 2802SOL    HW1 8225   2.117   3.984   1.091
 2802SOL    HW2 8226   1.997   3.962   0.982
 2803SOL     OW 8227   1.863   4.124   0.621
 2803SOL    HW1 8228   1.771   4.135   0.660
 2803SOL    HW2 8229   1.868   4.039   0.569
 2804SOL     OW 8230   2.408   4.959   1.164
 2804SOL    HW1 8231   2.325   4.997   1.123
 2804SOL    HW2 8232   2.463   5.034   1.203
 2805SOL     OW 8233   3.400   0.126   0.699
 2805SOL    HW1 8234   3.351   0.102   0.783
 2805SOL    HW2 8235   3.335   0.130   0.623
 2806SOL     OW 8236   2.984   4.413   0.712
 2806SOL    HW1 8237   3.032   4.494   0.679
 2806SOL    HW2 8238   2.934   4.435   0.796
 2807SOL     OW 8239   3.672   4.269   0.229
 2807SOL    HW1 8240   3.613   4.336   0.184
 2807SOL    HW2 8241   3.617   4.209   0.286
 2808SOL     OW 8242   2.631   4.880   1.021
 2808SOL    HW1 8243   2.554   4.879   1.086
 2808SOL    HW2 8244   2.629   4.964   0.968
 2809SOL     OW 8245   2.740   4.484   1.805
 2809SOL    HW1 8246   2.716   4.549   1.877
 2809SOL    HW2 8247   2.771   4.534   1.724
 2810SOL     OW 8248   2.554   4.733   0.652
 2810SOL    HW1 8249   2.622   4.713   0.723
 2810SOL    HW2 8250   2.480   4.788   0.691
 2811SOL     OW 8251   2.524   4.879   1.796
 2811SOL    HW1 8252   2.575   4.947   1.848
 2811SOL    HW2 8253   2.440   4.919   1.761
 2812SOL     OW 8254   2.209   0.012   1.050
 2812SOL    HW1 8255   2.126   5.067   1.005
 2812SOL    HW2 8256   2.261   0.070   0.988
 2813SOL     OW 8257   2.286   4.103   1.547
 2813SOL    HW1 8258   2.370   4.057   1.519
 2813SOL    HW2 8259   2.207   4.055   1.510
 2814SOL     OW 8260   3.454   4.160   0.717
 2814SOL    HW1 8261   3.357   4.169   0.694
 2814SOL    HW2 8262   3.487   4.247   0.754
 2815SOL     OW 8263   2.119   4.809   0.888
 2815SOL    HW1 8264   2.114   4.726   0.944
 2815SOL    HW2 8265   2.061   4.880   0.929
 2816SOL     OW 8266   2.428   4.712   0.140
 2816SOL    HW1 8267   2.495   4.702   0.067
 2816SOL    HW2 8268   2.472   4.750   0.222
 2817SOL     OW 8269   3.473   3.833   1.488
 2817SOL    HW1 8270   3.487   3.905   1.420
 2817SOL    HW2 8271   3.469   3.873   1.579
 2818SOL     OW 8272   1.969   4.377   0.563
 2818SOL    HW1 8273   1.940   4.283   0.579
 2818SOL    HW2 8274   1.971   4.427   0.649
 2819SOL     OW 8275   3.550   4.634   0.679
 2819SOL    HW1 8276   3.635   4.590   0.649
 2819SOL    HW2 8277   3.523   4.702   0.611
 2820SOL     OW 8278   3.504   4.834   0.489
 2820SOL    HW1 8279   3.583   4.833   0.428
 2820SOL    HW2 8280   3.524   4.890   0.569
 2821SOL     OW 8281   1.972   4.467   1.575
 2821SOL    HW1 8282   2.070   4.483   1.585
 2821SOL    HW2 8283   1.922   4.547   1.609
 2822SOL     OW 8284   3.165   4.945   1.415
 2822SOL    HW1 8285   3.211   4.882   1.351
 2822SOL    HW2 8286   3.212   4.942   1.503
 2823SOL     OW 8287   2.721   3.722   0.513
 2823SOL    HW1 8288   2.750   3.815   0.492
 2823SOL    HW2 8289   2.623   3.721   0.531
 2824SOL     OW 8290   2.054   4.682   1.246
 2824SOL    HW1 8291   2.141   4.633   1.236
 2824SOL    HW2 8292   1.978   4.619   1.232
 2825SOL     OW 8293   3.407   4.719   0.214
 2825SOL    HW1 8294   3.332   4.656   0.232
 2825SOL    HW2 8295   3.467   4.724   0.294
 2826SOL     OW 8296   2.203   3.960   1.822
 2826SOL    HW1 8297   2.270   4.034   1.811
 2826SOL    HW2 8298   2.114   3.999   1.847
 2827SOL     OW 8299   3.308   0.071   0.934
 2827SOL    HW1 8300   3.266   0.105   1.018
 2827SOL    HW2 8301   3.288   5.060   0.924
 2828SOL     OW 8302   2.452   4.434   0.286
 2828SOL    HW1 8303   2.471   4.524   0.246
 2828SOL    HW2 8304   2.371   4.439   0.344
 2829SOL     OW 8305   3.136   4.039   0.903
 2829SOL    HW1 8306   3.041   4.015   0.926
 2829SOL    HW2 8307   3.196   4.015   0.980
 2830SOL     OW 8308   2.679   4.301   1.444
 2830SOL    HW1 8309   2.651   4.285   1.539
 2830SOL    HW2 8310   2.608   4.266   1.382
 2831SOL     OW 8311   3.257   4.202   1.661
 2831SOL    HW1 8312   3.266   4.264   1.739
 2831SOL    HW2 8313   3.318   4.123   1.674
 2832SOL     OW 8314   2.841   4.612   1.576
 2832SOL    HW1 8315   2.893   4.531   1.546
 2832SOL    HW2 8316   2.787   4.647   1.500
 2833SOL     OW 8317   2.831   4.108   1.238
 2833SOL    HW1 8318   2.761   4.126   1.307
 2833SOL    HW2 8319   2.791   4.054   1.164
 2834SOL     OW 8320   2.893   4.441   0.427
 2834SOL    HW1 8321   2.909   4.448   0.525
 2834SOL    HW2 8322   2.811   4.386   0.411
 2835SOL     OW 8323   1.965   4.540   0.786
 2835SOL    HW1 8324   2.042   4.524   0.848
 2835SOL    HW2 8325   1.907   4.613   0.823
 2836SOL     OW 8326   2.734   4.075   0.226
 2836SOL    HW1 8327   2.774   4.138   0.159
 2836SOL    HW2 8328   2.726   3.984   0.186
 2837SOL     OW 8329   3.573   4.320   1.828
 2837SOL    HW1 8330   3.529   4.398   1.784
 2837SOL    HW2 8331   3.608   4.258   1.757
 2838SOL     OW 8332   3.227   4.857   0.588
 2838SOL    HW1 8333   3.307   4.849   0.528
 2838SOL    HW2 8334   3.171   4.934   0.558
 2839SOL     OW 8335   2.401   3.916   0.886
 2839SOL    HW1 8336   2.406   3.926   0.986
 2839SOL    HW2 8337   2.403   4.007   0.844
 2840SOL     OW 8338   3.676   4.779   0.902
 2840SOL    HW1 8339   3.626   4.765   0.817
 2840SOL    HW2 8340   3.611   4.780   0.979
 2841SOL     OW 8341   2.179   4.641   0.225
 2841SOL    HW1 8342   2.270   4.667   0.194
 2841SOL    HW2 8343   2.156   4.550   0.190
 2842SOL     OW 8344   3.346   4.464   0.699
 2842SOL    HW1 8345   3.338   4.430   0.793
 2842SOL    HW2 8346   3.423   4.527   0.693
 2843SOL     OW 8347   2.037   4.006   1.485
 2843SOL    HW1 8348   1.970   4.074   1.514
 2843SOL    HW2 8349   2.012   3.916   1.520
 2844SOL     OW 8350   3.496   0.048   0.016
 2844SOL    HW1 8351   3.451   0.124   0.063
 2844SOL    HW2 8352   3.442   5.051   0.027
 2845SOL     OW 8353   3.269   3.825   0.453
 2845SOL    HW1 8354   3.251   3.782   0.365
 2845SOL    HW2 8355   3.368   3.831   0.468
 2846SOL     OW 8356   2.226   4.417   0.450
 2846SOL    HW1 8357   2.253   4.324   0.473
 2846SOL    HW2 8358   2.132   4.433   0.481
 2847SOL     OW 8359   3.391   3.966   1.726
 2847SOL    HW1 8360   3.393   3.975   1.825
 2847SOL    HW2 8361   3.328   3.893   1.700
 2848SOL     OW 8362   2.638   3.982   1.732
 2848SOL    HW1 8363   2.714   3.917   1.734
 2848SOL    HW2 8364   2.578   3.966   1.811
 2849SOL     OW 8365   3.206   4.318   1.427
 2849SOL    HW1 8366   3.239   4.280   1.513
 2849SOL    HW2 8367   3.245   4.409   1.414
 2850SOL     OW 8368   2.609   0.046   0.930
 2850SOL    HW1 8369   2.688   0.047   0.869
 2850SOL    HW2 8370   2.540   0.110   0.896
 2851SOL     OW 8371   2.800   4.242   0.911
 2851SOL    HW1 8372   2.785   4.226   0.813
 2851SOL    HW2 8373   2.837   4.160   0.953
 2852SOL     OW 8374   2.446   3.774   0.488
 2852SOL    HW1 8375   2.372   3.770   0.554
 2852SOL    HW2 8376   2.442   3.861   0.438
 2853SOL     OW 8377   3.301   4.913   0.050
 2853SOL    HW1 8378   3.352   4.837   0.088
 2853SOL    HW2 8379   3.210   4.882   0.022
 2854SOL     OW 8380   2.167   3.840   0.232
 2854SOL    HW1 8381   2.245   3.902   0.235
 2854SOL    HW2 8382   2.201   3.745   0.228
 2855SOL     OW 8383   2.807   3.973   0.473
 2855SOL    HW1 8384   2.774   4.014   0.388
 2855SOL    HW2 8385   2.906   3.987   0.480
 2856SOL     OW 8386   2.949   4.393   1.470
 2856SOL    HW1 8387   2.878   4.323   1.470
 2856SOL    HW2 8388   3.039   4.350   1.463
 2857SOL     OW 8389   3.110   0.179   0.729
 2857SOL    HW1 8390   3.077   0.266   0.692
 2857SOL    HW2 8391   3.151   0.194   0.819
 2858SOL     OW 8392   2.331   4.885   0.741
 2858SOL    HW1 8393   2.266   4.854   0.810
 2858SOL    HW2 8394   2.296   4.863   0.650
 2859SOL     OW 8395   2.890   4.241   0.079
 2859SOL    HW1 8396   2.866   4.324   0.030
 2859SOL    HW2 8397   2.958   4.262   0.150
 2860SOL     OW 8398   1.926   4.277   1.395
 2860SOL    HW1 8399   2.021   4.261   1.372
 2860SOL    HW2 8400   1.919   4.356   1.455
 2861SOL     OW 8401   2.430   3.946   1.161
 2861SOL    HW1 8402   2.479   3.868   1.198
 2861SOL    HW2 8403   2.336   3.946   1.194
 2862SOL     OW 8404   2.758   4.178   0.660
 2862SOL    HW1 8405   2.713   4.242   0.598
 2862SOL    HW2 8406   2.769   4.090   0.615
 2863SOL     OW 8407   2.864   3.789   0.764
 2863SOL    HW1 8408   2.824   3.765   0.675
 2863SOL    HW2 8409   2.854   3.712   0.827
 2864SOL     OW 8410   3.300   4.890   0.881
 2864SOL    HW1 8411   3.270   4.801   0.916
 2864SOL    HW2 8412   3.281   4.895   0.783
 2865SOL     OW 8413   3.355   4.355   0.957
 2865SOL    HW1 8414   3.305   4.269   0.943
 2865SOL    HW2 8415   3.413   4.346   1.039
 2866SOL     OW 8416   3.700   4.527   0.401
 2866SOL    HW1 8417   3.763   4.463   0.446
 2866SOL    HW2 8418   3.702   4.512   0.303
 2867SOL     OW 8419   3.547   4.986   0.695
 2867SOL    HW1 8420   3.644   5.003   0.679
 2867SOL    HW2 8421   3.500   5.073   0.709
 2868SOL     OW 8422   3.235   4.269   0.089
 2868SOL    HW1 8423   3.191   4.279   0.178
 2868SOL    HW2 8424   3.305   4.198   0.094
 2869SOL     OW 8425   2.404   3.981   0.303
 2869SOL    HW1 8426   2.489   3.970   0.251
 2869SOL    HW2 8427   2.356   4.063   0.272
 2870SOL     OW 8428   3.603   4.940   1.563
 2870SOL    HW1 8429   3.697   4.921   1.592
 2870SOL    HW2 8430   3.589   5.039   1.559
 2871SOL     OW 8431   3.483   4.820   1.086
 2871SOL    HW1 8432   3.484   4.879   1.167
 2871SOL    HW2 8433   3.422   4.860   1.017
 2872SOL     OW 8434   2.793   3.822   1.401
 2872SOL    HW1 8435   2.819   3.792   1.309
 2872SOL    HW2 8436   2.872   3.865   1.446
 2873SOL     OW 8437   2.842   4.812   1.750
 2873SOL    HW1 8438   2.745   4.836   1.756
 2873SOL    HW2 8439   2.856   4.743   1.679
 2874SOL     OW 8440   2.566   4.776   0.361
 2874SOL    HW1 8441   2.554   4.763   0.459
 2874SOL    HW2 8442   2.652   4.735   0.332
 2875SOL     OW 8443   2.289   4.532   1.264
 2875SOL    HW1 8444   2.363   4.534   1.331
 2875SOL    HW2 8445   2.236   4.449   1.276
 2876SOL     OW 8446   3.127   4.104   1.275
 2876SOL    HW1 8447   3.155   4.184   1.327
 2876SOL    HW2 8448   3.032   4.115   1.246
 2877SOL     OW 8449   2.256   4.807   0.491
 2877SOL    HW1 8450   2.293   4.877   0.430
 2877SOL    HW2 8451   2.235   4.724   0.438
 2878SOL     OW 8452   2.406   4.263   0.863
 2878SOL    HW1 8453   2.416   4.330   0.790
 2878SOL    HW2 8454   2.478   4.277   0.932
 2879SOL     OW 8455   3.439   4.324   0.455
 2879SOL    HW1 8456   3.381   4.353   0.531
 2879SOL    HW2 8457   3.485   4.403   0.415
 2880SOL     OW 8458   2.271   4.455   1.604
 2880SOL    HW1 8459   2.342   4.501   1.550
 2880SOL    HW2 8460   2.297   4.360   1.619
 2881SOL     OW 8461   3.468   4.527   1.688
 2881SOL    HW1 8462   3.378   4.570   1.691
 2881SOL    HW2 8463   3.524   4.571   1.618
 2882SOL     OW 8464   2.853   3.816   1.763
 2882SOL    HW1 8465   2.910   3.899   1.767
 2882SOL    HW2 8466   2.902   3.745   1.714
 2883SOL     OW 8467   2.359   3.753   1.747
 2883SOL    HW1 8468   2.322   3.690   1.678
 2883SOL    HW2 8469   2.293   3.826   1.765
 2884SOL     OW 8470   2.419   4.611   1.034
 2884SOL    HW1 8471   2.458   4.703   1.041
 2884SOL    HW2 8472   2.369   4.589   1.117
 2885SOL     OW 8473   3.214   4.602   0.986
 2885SOL    HW1 8474   3.129   4.577   0.941
 2885SOL    HW2 8475   3.271   4.520   0.996
 2886SOL     OW 8476   3.063   4.265   0.297
 2886SOL    HW1 8477   3.084   4.191   0.361
 2886SOL    HW2 8478   3.013   4.338   0.345
 2887SOL     OW 8479   2.168   3.925   1.240
 2887SOL    HW1 8480   2.127   3.960   1.324
 2887SOL    HW2 8481   2.148   3.827   1.232
 2888SOL     OW 8482   2.599   4.394   1.077
 2888SOL    HW1 8483   2.671   4.371   1.010
 2888SOL    HW2 8484   2.548   4.473   1.045
 2889SOL     OW 8485   3.615   4.676   1.861
 2889SOL    HW1 8486   3.567   4.613   1.800
 2889SOL    HW2 8487   3.562   4.689   1.944
 2890SOL     OW 8488   2.196   3.804   0.623
 2890SOL    HW1 8489   2.166   3.897   0.644
 2890SOL    HW2 8490   2.197   3.749   0.706
 2891SOL     OW 8491   3.514   4.078   0.359
 2891SOL    HW1 8492   3.517   3.998   0.420
 2891SOL    HW2 8493   3.479   4.157   0.410
 2892SOL     OW 8494   2.894   4.483   0.986
 2892SOL    HW1 8495   2.887   4.495   1.085
 2892SOL    HW2 8496   2.875   4.388   0.963
 2893SOL     OW 8497   3.732   0.115   1.596
 2893SOL    HW1 8498   3.655   0.154   1.546
 2893SOL    HW2 8499   3.726   0.142   1.692
 2894SOL     OW 8500   2.225   4.627   1.803
 2894SOL    HW1 8501   2.305   4.639   1.862
 2894SOL    HW2 8502   2.245   4.558   1.733
 2895SOL     OW 8503   3.373   3.992   0.142
 2895SOL    HW1 8504   3.297   3.937   0.178
 2895SOL    HW2 8505   3.434   4.017   0.217
 2896SOL     OW 8506   3.154   4.530   0.022
 2896SOL    HW1 8507   3.197   4.440   0.029
 2896SOL    HW2 8508   3.202   4.585   5.041
 2897SOL     OW 8509   2.153   4.514   0.980
 2897SOL    HW1 8510   2.245   4.553   0.969
 2897SOL    HW2 8511   2.161   4.418   1.008
 2898SOL     OW 8512   2.199   4.242   1.026
 2898SOL    HW1 8513   2.156   4.153   1.008
 2898SOL    HW2 8514   2.275   4.256   0.962
 2899SOL     OW 8515   3.022   4.074   1.702
 2899SOL    HW1 8516   2.968   4.129   1.766
 2899SOL    HW2 8517   3.111   4.117   1.689
 2900SOL     OW 8518   3.033   3.922   1.481
 2900SOL    HW1 8519   3.031   3.978   1.564
 2900SOL    HW2 8520   3.073   3.974   1.406
 2901SOL     OW 8521   2.844   4.499   1.244
 2901SOL    HW1 8522   2.888   4.459   1.324
 2901SOL    HW2 8523   2.748   4.469   1.241
 2902SOL     OW 8524   1.884   4.257   1.100
 2902SOL    HW1 8525   1.965   4.232   1.046
 2902SOL    HW2 8526   1.910   4.266   1.196
 2903SOL     OW 8527   2.088   4.235   1.706
 2903SOL    HW1 8528   2.152   4.189   1.645
 2903SOL    HW2 8529   2.037   4.304   1.655
 2904SOL     OW 8530   3.221   4.659   1.652
 2904SOL    HW1 8531   3.243   4.757   1.648
 2904SOL    HW2 8532   3.228   4.620   1.560
 2905SOL     OW 8533   2.673   4.297   0.382
 2905SOL    HW1 8534   2.688   4.215   0.327
 2905SOL    HW2 8535   2.591   4.344   0.350
 2906SOL     OW 8536   3.492   4.341   1.201
 2906SOL    HW1 8537   3.460   4.278   1.272
 2906SOL    HW2 8538   3.578   4.307   1.163
 2907SOL     OW 8539   2.511   4.203   1.263
 2907SOL    HW1 8540   2.484   4.119   1.218
 2907SOL    HW2 8541   2.538   4.271   1.194
 2908SOL     OW 8542   2.306   4.211   0.206
 2908SOL    HW1 8543   2.380   4.275   0.227
 2908SOL    HW2 8544   2.221   4.261   0.193
 2909SOL     OW 8545   2.044   4.846   1.473
 2909SOL    HW1 8546   2.021   4.795   1.556
 2909SOL    HW2 8547   2.052   4.782   1.396
 2910SOL     OW 8548   3.196   4.742   1.218
 2910SOL    HW1 8549   3.209   4.693   1.132
 2910SOL    HW2 8550   3.105   4.784   1.220
 2911SOL     OW 8551   3.197   4.572   0.295
 2911SOL    HW1 8552   3.123   4.555   0.360
 2911SOL    HW2 8553   3.159   4.572   0.202
 2912SOL     OW 8554   1.950   4.986   0.992
 2912SOL    HW1 8555   1.944   4.985   1.092
 2912SOL    HW2 8556   1.884   4.921   0.954
 2913SOL     OW 8557   2.711   3.817   0.142
 2913SOL    HW1 8558   2.750   3.826   0.051
 2913SOL    HW2 8559   2.770   3.758   0.198
 2914SOL     OW 8560   3.553   3.846   0.507
 2914SOL    HW1 8561   3.632   3.841   0.446
 2914SOL    HW2 8562   3.547   3.763   0.562
 2915SOL     OW 8563   3.130   4.617   0.635
 2915SOL    HW1 8564   3.208   4.557   0.653
 2915SOL    HW2 8565   3.163   4.708   0.608
 2916SOL     OW 8566   2.648   4.966   1.448
 2916SOL    HW1 8567   2.694   5.055   1.461
 2916SOL    HW2 8568   2.549   4.980   1.448
 2917SOL     OW 8569   3.710   3.894   0.959
 2917SOL    HW1 8570   3.732   3.798   0.939
 2917SOL    HW2 8571   3.620   3.916   0.920
 2918SOL     OW 8572   2.113   4.046   0.703
 2918SOL    HW1 8573   2.023   4.083   0.680
 2918SOL    HW2 8574   2.125   4.048   0.803
 2919SOL     OW 8575   2.690   4.715   1.383
 2919SOL    HW1 8576   2.723   4.712   1.288
 2919SOL    HW2 8577   2.687   4.810   1.414
 2920SOL     OW 8578   2.776   4.647   0.259
 2920SOL    HW1 8579   2.856   4.684   0.212
 2920SOL    HW2 8580   2.800   4.563   0.307
 2921SOL     OW 8581   2.268   5.007   1.518
 2921SOL    HW1 8582   2.243   0.002   1.466
 2921SOL    HW2 8583   2.196   4.938   1.508
 2922SOL     OW 8584   3.490   4.998   1.304
 2922SOL    HW1 8585   3.546   4.957   1.376
 2922SOL    HW2 8586   3.430   5.068   1.344
 2923SOL     OW 8587   2.924   4.821   0.728
 2923SOL    HW1 8588   2.840   4.777   0.760
 2923SOL    HW2 8589   2.983   4.752   0.685
 2924SOL     OW 8590   2.886   3.950   0.982
 2924SOL    HW1 8591   2.868   3.910   0.892
 2924SOL    HW2 8592   2.893   3.878   1.050
 2925SOL     OW 8593   3.572   4.114   1.377
 2925SOL    HW1 8594   3.635   4.191   1.381
 2925SOL    HW2 8595   3.609   4.044   1.316
 2926SOL     OW 8596   1.985   4.714   1.706
 2926SOL    HW1 8597   1.909   4.713   1.770
 2926SOL    HW2 8598   2.069   4.687   1.752
 2927SOL     OW 8599   2.547   3.913   1.479
 2927SOL    HW1 8600   2.632   3.878   1.439
 2927SOL    HW2 8601   2.565   3.951   1.570
 2928SOL     OW 8602   3.297   4.581   1.402
 2928SOL    HW1 8603   3.250   4.643   1.339
 2928SOL    HW2 8604   3.396   4.589   1.388
 2929SOL     OW 8605   1.907   3.886   0.313
 2929SOL    HW1 8606   1.875   3.978   0.290
 2929SOL    HW2 8607   2.004   3.878   0.290
 2930SOL     OW 8608   2.494   4.531   1.435
 2930SOL    HW1 8609   2.545   4.616   1.423
 2930SOL    HW2 8610   2.558   4.456   1.452
 2931SOL     OW 8611   2.592   4.264   1.693
 2931SOL    HW1 8612   2.624   4.327   1.764
 2931SOL    HW2 8613   2.614   4.170   1.720
 2932SOL     OW 8614   3.320   4.906   1.637
 2932SOL    HW1 8615   3.304   4.925   1.733
 2932SOL    HW2 8616   3.418   4.912   1.618
 2933SOL     OW 8617   3.561   4.610   1.248
 2933SOL    HW1 8618   3.537   4.516   1.226
 2933SOL    HW2 8619   3.526   4.671   1.177
 2934SOL     OW 8620   3.089   4.051   0.483
 2934SOL    HW1 8621   3.147   3.971   0.472
 2934SOL    HW2 8622   3.119   4.104   0.562
 2935SOL     OW 8623   2.442   4.453   0.674
 2935SOL    HW1 8624   2.501   4.533   0.663
 2935SOL    HW2 8625   2.375   4.450   0.599
 2936SOL     OW 8626   3.630   4.087   1.635
 2936SOL    HW1 8627   3.606   4.103   1.539
 2936SOL    HW2 8628   3.555   4.041   1.681
 2937SOL     OW 8629   3.605   4.671   1.513
 2937SOL    HW1 8630   3.612   4.769   1.533
 2937SOL    HW2 8631   3.603   4.657   1.414
 2938SOL     OW 8632   2.727   4.670   0.851
 2938SOL    HW1 8633   2.781   4.602   0.900
 2938SOL    HW2 8634   2.705   4.746   0.913
 2939SOL     OW 8635   2.973   4.722   0.094
 2939SOL    HW1 8636   2.921   4.754   0.015
 2939SOL    HW2 8637   3.043   4.658   0.064
 2940SOL     OW 8638   1.939   4.975   0.648
 2940SOL    HW1 8639   1.966   4.895   0.702
 2940SOL    HW2 8640   2.019   5.011   0.600
 2941SOL     OW 8641   3.673   3.905   1.230
 2941SOL    HW1 8642   3.690   3.809   1.250
 2941SOL    HW2 8643   3.684   3.921   1.131
 2942SOL     OW 8644   2.311   4.164   0.515
 2942SOL    HW1 8645   2.357   4.095   0.459
 2942SOL    HW2 8646   2.258   4.118   0.586
 2943SOL     OW 8647   2.196   4.262   1.301
 2943SOL    HW1 8648   2.278   4.234   1.349
 2943SOL    HW2 8649   2.204   4.239   1.204
 2944SOL     OW 8650   3.293   3.969   1.101
 2944SOL    HW1 8651   3.338   3.890   1.141
 2944SOL    HW2 8652   3.238   4.016   1.171
 2945SOL     OW 8653   2.874   3.727   1.151
 2945SOL    HW1 8654   2.812   3.666   1.102
 2945SOL    HW2 8655   2.966   3.689   1.152
 2946SOL     OW 8656   2.678   5.019   0.295
 2946SOL    HW1 8657   2.609   4.948   0.307
 2946SOL    HW2 8658   2.707   5.053   0.385
 2947SOL     OW 8659   3.184   3.745   0.201
 2947SOL    HW1 8660   3.242   3.724   0.122
 2947SOL    HW2 8661   3.118   3.816   0.176
 2948SOL     OW 8662   3.171   4.212   0.710
 2948SOL    HW1 8663   3.101   4.284   0.708
 2948SOL    HW2 8664   3.149   4.147   0.783
 2949SOL     OW 8665   3.463   3.933   0.859
 2949SOL    HW1 8666   3.383   3.935   0.919
 2949SOL    HW2 8667   3.457   4.009   0.794
 2950SOL     OW 8668   1.843   4.780   0.328
 2950SOL    HW1 8669   1.932   4.802   0.289
 2950SOL    HW2 8670   1.846   4.688   0.367
 2951SOL     OW 8671   2.092   4.359   2.001
 2951SOL    HW1 8672   2.000   4.330   2.027
 2951SOL    HW2 8673   2.109   4.333   1.905
 2952SOL     OW 8674   2.080   4.002   2.856
 2952SOL    HW1 8675   2.105   3.990   2.952
 2952SOL    HW2 8676   1.998   3.949   2.836
 2953SOL     OW 8677   1.865   4.134   2.477
 2953SOL    HW1 8678   1.778   4.146   2.526
 2953SOL    HW2 8679   1.866   4.045   2.433
 2954SOL     OW 8680   2.412   4.954   3.023
 2954SOL    HW1 8681   2.327   4.987   2.980
 2954SOL    HW2 8682   2.471   5.032   3.045
 2955SOL     OW 8683   3.384   0.152   2.561
 2955SOL    HW1 8684   3.349   0.116   2.647
 2955SOL    HW2 8685   3.313   0.148   2.491
 2956SOL     OW 8686   2.988   4.414   2.564
 2956SOL    HW1 8687   3.030   4.501   2.536
 2956SOL    HW2 8688   2.933   4.429   2.646
 2957SOL     OW 8689   3.639   4.307   2.086
 2957SOL    HW1 8690   3.614   4.322   1.990
 2957SOL    HW2 8691   3.590   4.227   2.120
 2958SOL     OW 8692   2.643   4.884   2.893
 2958SOL    HW1 8693   2.557   4.885   2.944
 2958SOL    HW2 8694   2.647   4.963   2.832
 2959SOL     OW 8695   2.731   4.493   3.672
 2959SOL    HW1 8696   2.708   4.555   3.748
 2959SOL    HW2 8697   2.766   4.546   3.595
 2960SOL     OW 8698   2.544   4.723   2.528
 2960SOL    HW1 8699   2.614   4.709   2.598
 2960SOL    HW2 8700   2.479   4.792   2.559
 2961SOL     OW 8701   2.535   4.877   3.656
 2961SOL    HW1 8702   2.577   4.950   3.710
 2961SOL    HW2 8703   2.449   4.909   3.617
 2962SOL     OW 8704   2.215   0.027   2.909
 2962SOL    HW1 8705   2.124   0.007   2.873
 2962SOL    HW2 8706   2.271   0.069   2.838
 2963SOL     OW 8707   2.284   4.109   3.413
 2963SOL    HW1 8708   2.365   4.059   3.383
 2963SOL    HW2 8709   2.202   4.063   3.377
 2964SOL     OW 8710   3.469   4.158   2.598
 2964SOL    HW1 8711   3.411   4.186   2.521
 2964SOL    HW2 8712   3.450   4.218   2.677
 2965SOL     OW 8713   2.128   4.810   2.764
 2965SOL    HW1 8714   2.137   4.728   2.821
 2965SOL    HW2 8715   2.067   4.875   2.810
 2966SOL     OW 8716   2.427   4.718   1.990
 2966SOL    HW1 8717   2.464   4.770   1.914
 2966SOL    HW2 8718   2.472   4.745   2.075
 2967SOL     OW 8719   3.481   3.839   3.351
 2967SOL    HW1 8720   3.477   3.915   3.285
 2967SOL    HW2 8721   3.483   3.875   3.444
 2968SOL     OW 8722   1.987   4.377   2.435
 2968SOL    HW1 8723   1.947   4.286   2.448
 2968SOL    HW2 8724   1.980   4.429   2.520
 2969SOL     OW 8725   3.542   4.657   2.519
 2969SOL    HW1 8726   3.621   4.608   2.482
 2969SOL    HW2 8727   3.508   4.722   2.451
 2970SOL     OW 8728   3.505   4.858   2.294
 2970SOL    HW1 8729   3.595   4.855   2.250
 2970SOL    HW2 8730   3.507   4.924   2.369
 2971SOL     OW 8731   1.968   4.460   3.454
 2971SOL    HW1 8732   2.066   4.477   3.464
 2971SOL    HW2 8733   1.917   4.544   3.471
 2972SOL     OW 8734   3.168   4.960   3.270
 2972SOL    HW1 8735   3.204   4.888   3.210
 2972SOL    HW2 8736   3.207   4.950   3.361
 2973SOL     OW 8737   2.694   3.719   2.371
 2973SOL    HW1 8738   2.734   3.809   2.351
 2973SOL    HW2 8739   2.595   3.728   2.375
 2974SOL     OW 8740   2.052   4.674   3.113
 2974SOL    HW1 8741   2.136   4.621   3.105
 2974SOL    HW2 8742   1.974   4.615   3.090
 2975SOL     OW 8743   3.405   4.717   2.063
 2975SOL    HW1 8744   3.323   4.664   2.087
 2975SOL    HW2 8745   3.442   4.760   2.146
 2976SOL     OW 8746   2.207   3.957   3.673
 2976SOL    HW1 8747   2.267   4.035   3.654
 2976SOL    HW2 8748   2.119   3.991   3.706
 2977SOL     OW 8749   3.308   0.067   2.800
 2977SOL    HW1 8750   3.276   0.094   2.891
 2977SOL    HW2 8751   3.281   5.059   2.783
 2978SOL     OW 8752   2.444   4.427   2.130
 2978SOL    HW1 8753   2.453   4.520   2.096
 2978SOL    HW2 8754   2.366   4.422   2.193
 2979SOL     OW 8755   3.137   4.059   2.770
 2979SOL    HW1 8756   3.042   4.034   2.788
 2979SOL    HW2 8757   3.195   4.024   2.843
 2980SOL     OW 8758   2.680   4.324   3.310
 2980SOL    HW1 8759   2.656   4.298   3.404
 2980SOL    HW2 8760   2.617   4.280   3.246
 2981SOL     OW 8761   3.259   4.190   3.530
 2981SOL    HW1 8762   3.265   4.247   3.612
 2981SOL    HW2 8763   3.319   4.110   3.541
 2982SOL     OW 8764   2.838   4.611   3.440
 2982SOL    HW1 8765   2.890   4.531   3.411
 2982SOL    HW2 8766   2.786   4.647   3.363
 2983SOL     OW 8767   2.842   4.133   3.094
 2983SOL    HW1 8768   2.769   4.149   3.161
 2983SOL    HW2 8769   2.804   4.087   3.014
 2984SOL     OW 8770   2.902   4.403   2.279
 2984SOL    HW1 8771   2.924   4.406   2.376
 2984SOL    HW2 8772   2.812   4.359   2.267
 2985SOL     OW 8773   1.966   4.547   2.652
 2985SOL    HW1 8774   2.046   4.536   2.711
 2985SOL    HW2 8775   1.919   4.633   2.674
 2986SOL     OW 8776   2.740   4.090   2.073
 2986SOL    HW1 8777   2.791   4.147   2.008
 2986SOL    HW2 8778   2.729   3.998   2.034
 2987SOL     OW 8779   3.563   4.319   3.692
 2987SOL    HW1 8780   3.527   4.403   3.651
 2987SOL    HW2 8781   3.597   4.258   3.621
 2988SOL     OW 8782   3.240   4.868   2.406
 2988SOL    HW1 8783   3.327   4.848   2.361
 2988SOL    HW2 8784   3.202   4.953   2.368
 2989SOL     OW 8785   2.402   3.942   2.765
 2989SOL    HW1 8786   2.407   3.946   2.864
 2989SOL    HW2 8787   2.408   4.034   2.726
 2990SOL     OW 8788   3.673   4.770   2.755
 2990SOL    HW1 8789   3.626   4.755   2.668
 2990SOL    HW2 8790   3.605   4.768   2.829
 2991SOL     OW 8791   2.166   4.637   2.099
 2991SOL    HW1 8792   2.253   4.661   2.057
 2991SOL    HW2 8793   2.132   4.551   2.060
 2992SOL     OW 8794   3.345   4.486   2.579
 2992SOL    HW1 8795   3.348   4.444   2.670
 2992SOL    HW2 8796   3.425   4.546   2.567
 2993SOL     OW 8797   2.035   4.007   3.357
 2993SOL    HW1 8798   1.965   4.074   3.382
 2993SOL    HW2 8799   2.012   3.919   3.397
 2994SOL     OW 8800   3.494   0.014   1.895
 2994SOL    HW1 8801   3.456   0.095   1.941
 2994SOL    HW2 8802   3.429   5.025   1.904
 2995SOL     OW 8803   3.265   3.815   2.289
 2995SOL    HW1 8804   3.256   3.772   2.199
 2995SOL    HW2 8805   3.361   3.834   2.307
 2996SOL     OW 8806   2.251   4.382   2.326
 2996SOL    HW1 8807   2.278   4.292   2.360
 2996SOL    HW2 8808   2.155   4.399   2.348
 2997SOL     OW 8809   3.393   3.959   3.591
 2997SOL    HW1 8810   3.398   3.967   3.691
 2997SOL    HW2 8811   3.335   3.882   3.567
 2998SOL     OW 8812   2.497   3.857   1.956
 2998SOL    HW1 8813   2.568   3.793   1.986
 2998SOL    HW2 8814   2.440   3.813   1.886
 2999SOL     OW 8815   2.634   3.987   3.596
 2999SOL    HW1 8816   2.717   3.931   3.598
 2999SOL    HW2 8817   2.577   3.965   3.675
 3000SOL     OW 8818   3.208   4.314   3.285
 3000SOL    HW1 8819   3.240   4.281   3.374
 3000SOL    HW2 8820   3.244   4.405   3.269
 3001SOL     OW 8821   2.602   0.048   2.782
 3001SOL    HW1 8822   2.683   0.044   2.724
 3001SOL    HW2 8823   2.535   0.110   2.743
 3002SOL     OW 8824   2.802   4.238   2.772
 3002SOL    HW1 8825   2.777   4.229   2.676
 3002SOL    HW2 8826   2.836   4.151   2.806
 3003SOL     OW 8827   2.418   3.763   2.367
 3003SOL    HW1 8828   2.339   3.764   2.428
 3003SOL    HW2 8829   2.418   3.845   2.311
 3004SOL     OW 8830   3.280   4.918   1.920
 3004SOL    HW1 8831   3.340   4.847   1.954
 3004SOL    HW2 8832   3.185   4.887   1.924
 3005SOL     OW 8833   2.147   3.773   2.045
 3005SOL    HW1 8834   2.193   3.847   1.997
 3005SOL    HW2 8835   2.214   3.714   2.089
 3006SOL     OW 8836   2.798   3.974   2.346
 3006SOL    HW1 8837   2.770   4.029   2.267
 3006SOL    HW2 8838   2.896   3.986   2.360
 3007SOL     OW 8839   2.956   4.398   3.334
 3007SOL    HW1 8840   2.883   4.330   3.338
 3007SOL    HW2 8841   3.045   4.351   3.331
 3008SOL     OW 8842   3.110   0.180   2.596
 3008SOL    HW1 8843   3.101   0.277   2.573
 3008SOL    HW2 8844   3.158   0.171   2.683
 3009SOL     OW 8845   2.331   4.898   2.610
 3009SOL    HW1 8846   2.264   4.861   2.673
 3009SOL    HW2 8847   2.303   4.878   2.516
 3010SOL     OW 8848   2.920   4.246   1.889
 3010SOL    HW1 8849   2.868   4.329   1.871
 3010SOL    HW2 8850   2.995   4.267   1.951
 3011SOL     OW 8851   1.932   4.275   3.264
 3011SOL    HW1 8852   2.028   4.264   3.236
 3011SOL    HW2 8853   1.924   4.354   3.326
 3012SOL     OW 8854   2.421   3.954   3.033
 3012SOL    HW1 8855   2.469   3.874   3.069
 3012SOL    HW2 8856   2.327   3.955   3.066
 3013SOL     OW 8857   2.747   4.182   2.521
 3013SOL    HW1 8858   2.688   4.236   2.461
 3013SOL    HW2 8859   2.770   4.096   2.475
 3014SOL     OW 8860   2.846   3.820   2.633
 3014SOL    HW1 8861   2.821   3.799   2.538
 3014SOL    HW2 8862   2.837   3.737   2.689
 3015SOL     OW 8863   3.290   4.878   2.744
 3015SOL    HW1 8864   3.256   4.788   2.771
 3015SOL    HW2 8865   3.274   4.892   2.647
 3016SOL     OW 8866   3.347   4.320   2.833
 3016SOL    HW1 8867   3.282   4.244   2.844
 3016SOL    HW2 8868   3.408   4.323   2.912
 3017SOL     OW 8869   3.701   4.523   2.257
 3017SOL    HW1 8870   3.761   4.479   2.323
 3017SOL    HW2 8871   3.689   4.464   2.177
 3018SOL     OW 8872   3.522   5.009   2.518
 3018SOL    HW1 8873   3.622   5.007   2.526
 3018SOL    HW2 8874   3.488   0.009   2.554
 3019SOL     OW 8875   3.269   4.313   1.924
 3019SOL    HW1 8876   3.218   4.276   2.002
 3019SOL    HW2 8877   3.367   4.300   1.940
 3020SOL     OW 8878   2.394   3.970   2.185
 3020SOL    HW1 8879   2.426   3.919   2.106
 3020SOL    HW2 8880   2.364   4.061   2.156
 3021SOL     OW 8881   3.601   4.939   3.433
 3021SOL    HW1 8882   3.688   4.915   3.476
 3021SOL    HW2 8883   3.597   5.038   3.421
 3022SOL     OW 8884   3.478   4.809   2.948
 3022SOL    HW1 8885   3.479   4.869   3.029
 3022SOL    HW2 8886   3.409   4.842   2.883
 3023SOL     OW 8887   2.785   3.834   3.258
 3023SOL    HW1 8888   2.812   3.796   3.170
 3023SOL    HW2 8889   2.866   3.872   3.304
 3024SOL     OW 8890   2.847   4.828   3.602
 3024SOL    HW1 8891   2.752   4.859   3.608
 3024SOL    HW2 8892   2.852   4.752   3.538
 3025SOL     OW 8893   2.567   4.790   2.202
 3025SOL    HW1 8894   2.550   4.777   2.299
 3025SOL    HW2 8895   2.653   4.745   2.176
 3026SOL     OW 8896   2.290   4.524   3.125
 3026SOL    HW1 8897   2.362   4.533   3.194
 3026SOL    HW2 8898   2.241   4.438   3.139
 3027SOL     OW 8899   3.121   4.113   3.120
 3027SOL    HW1 8900   3.146   4.187   3.181
 3027SOL    HW2 8901   3.026   4.124   3.091
 3028SOL     OW 8902   2.254   4.818   2.359
 3028SOL    HW1 8903   2.272   4.899   2.304
 3028SOL    HW2 8904   2.226   4.743   2.299
 3029SOL     OW 8905   2.419   4.272   2.723
 3029SOL    HW1 8906   2.437   4.323   2.640
 3029SOL    HW2 8907   2.484   4.299   2.794
 3030SOL     OW 8908   3.451   4.348   2.334
 3030SOL    HW1 8909   3.393   4.400   2.397
 3030SOL    HW2 8910   3.507   4.411   2.281
 3031SOL     OW 8911   2.267   4.447   3.457
 3031SOL    HW1 8912   2.337   4.497   3.406
 3031SOL    HW2 8913   2.298   4.354   3.473
 3032SOL     OW 8914   3.470   4.535   3.558
 3032SOL    HW1 8915   3.379   4.576   3.558
 3032SOL    HW2 8916   3.525   4.577   3.486
 3033SOL     OW 8917   2.856   3.832   3.610
 3033SOL    HW1 8918   2.922   3.907   3.611
 3033SOL    HW2 8919   2.898   3.751   3.567
 3034SOL     OW 8920   2.367   3.746   3.621
 3034SOL    HW1 8921   2.329   3.683   3.553
 3034SOL    HW2 8922   2.303   3.821   3.636
 3035SOL     OW 8923   2.430   4.603   2.910
 3035SOL    HW1 8924   2.461   4.698   2.910
 3035SOL    HW2 8925   2.383   4.583   2.996
 3036SOL     OW 8926   3.217   4.599   2.843
 3036SOL    HW1 8927   3.133   4.572   2.797
 3036SOL    HW2 8928   3.267   4.517   2.872
 3037SOL     OW 8929   3.090   4.232   2.127
 3037SOL    HW1 8930   3.104   4.151   2.184
 3037SOL    HW2 8931   3.027   4.295   2.173
 3038SOL     OW 8932   2.153   3.940   3.109
 3038SOL    HW1 8933   2.110   3.978   3.191
 3038SOL    HW2 8934   2.133   3.842   3.103
 3039SOL     OW 8935   2.591   4.377   2.933
 3039SOL    HW1 8936   2.669   4.362   2.872
 3039SOL    HW2 8937   2.547   4.464   2.909
 3040SOL     OW 8938   3.622   4.681   3.732
 3040SOL    HW1 8939   3.563   4.621   3.677
 3040SOL    HW2 8940   3.579   4.699   3.820
 3041SOL     OW 8941   2.164   3.779   2.477
 3041SOL    HW1 8942   2.138   3.874   2.489
 3041SOL    HW2 8943   2.177   3.735   2.566
 3042SOL     OW 8944   3.458   4.097   2.208
 3042SOL    HW1 8945   3.488   4.019   2.263
 3042SOL    HW2 8946   3.451   4.179   2.266
 3043SOL     OW 8947   2.890   4.482   2.851
 3043SOL    HW1 8948   2.885   4.493   2.950
 3043SOL    HW2 8949   2.877   4.385   2.827
 3044SOL     OW 8950   3.731   0.114   3.463
 3044SOL    HW1 8951   3.652   0.152   3.415
 3044SOL    HW2 8952   3.718   0.123   3.562
 3045SOL     OW 8953   2.230   4.637   3.648
 3045SOL    HW1 8954   2.303   4.643   3.716
 3045SOL    HW2 8955   2.249   4.562   3.585
 3046SOL     OW 8956   3.368   3.966   1.987
 3046SOL    HW1 8957   3.300   3.898   2.015
 3046SOL    HW2 8958   3.401   4.015   2.068
 3047SOL     OW 8959   3.175   4.559   1.893
 3047SOL    HW1 8960   3.213   4.466   1.901
 3047SOL    HW2 8961   3.184   4.590   1.798
 3048SOL     OW 8962   2.168   4.524   2.844
 3048SOL    HW1 8963   2.263   4.555   2.852
 3048SOL    HW2 8964   2.163   4.427   2.864
 3049SOL     OW 8965   2.193   4.245   2.860
 3049SOL    HW1 8966   2.156   4.154   2.843
 3049SOL    HW2 8967   2.272   4.260   2.800
 3050SOL     OW 8968   3.020   4.070   3.562
 3050SOL    HW1 8969   2.964   4.130   3.620
 3050SOL    HW2 8970   3.115   4.102   3.562
 3051SOL     OW 8971   3.032   3.923   3.341
 3051SOL    HW1 8972   3.030   3.978   3.425
 3051SOL    HW2 8973   3.071   3.977   3.267
 3052SOL     OW 8974   1.864   5.056   2.025
 3052SOL    HW1 8975   1.782   5.071   1.968
 3052SOL    HW2 8976   1.860   4.966   2.066
 3053SOL     OW 8977   2.848   4.513   3.116
 3053SOL    HW1 8978   2.900   4.472   3.191
 3053SOL    HW2 8979   2.755   4.476   3.115
 3054SOL     OW 8980   1.893   4.252   2.977
 3054SOL    HW1 8981   1.971   4.239   2.917
 3054SOL    HW2 8982   1.923   4.247   3.072
 3055SOL     OW 8983   2.091   4.238   3.570
 3055SOL    HW1 8984   2.155   4.195   3.506
 3055SOL    HW2 8985   2.036   4.305   3.521
 3056SOL     OW 8986   3.221   4.656   3.518
 3056SOL    HW1 8987   3.240   4.754   3.517
 3056SOL    HW2 8988   3.226   4.620   3.425
 3057SOL     OW 8989   2.661   4.288   2.237
 3057SOL    HW1 8990   2.675   4.214   2.172
 3057SOL    HW2 8991   2.578   4.339   2.213
 3058SOL     OW 8992   3.495   4.334   3.062
 3058SOL    HW1 8993   3.465   4.273   3.135
 3058SOL    HW2 8994   3.581   4.301   3.023
 3059SOL     OW 8995   2.528   4.200   3.129
 3059SOL    HW1 8996   2.493   4.114   3.091
 3059SOL    HW2 8997   2.544   4.265   3.055
 3060SOL     OW 8998   2.307   4.195   2.069
 3060SOL    HW1 8999   2.376   4.268   2.070
 3060SOL    HW2 9000   2.216   4.235   2.067
 3061SOL     OW 9001   2.064   4.849   3.327
 3061SOL    HW1 9002   2.036   4.801   3.410
 3061SOL    HW2 9003   2.064   4.785   3.250
 3062SOL     OW 9004   3.188   4.748   3.077
 3062SOL    HW1 9005   3.203   4.693   2.995
 3062SOL    HW2 9006   3.100   4.795   3.070
 3063SOL     OW 9007   3.173   4.596   2.163
 3063SOL    HW1 9008   3.099   4.551   2.212
 3063SOL    HW2 9009   3.162   4.583   2.064
 3064SOL     OW 9010   1.952   4.982   2.858
 3064SOL    HW1 9011   1.929   4.996   2.955
 3064SOL    HW2 9012   1.887   4.917   2.818
 3065SOL     OW 9013   3.536   3.861   2.344
 3065SOL    HW1 9014   3.613   3.857   2.281
 3065SOL    HW2 9015   3.538   3.781   2.405
 3066SOL     OW 9016   3.132   4.637   2.504
 3066SOL    HW1 9017   3.210   4.582   2.532
 3066SOL    HW2 9018   3.163   4.720   2.458
 3067SOL     OW 9019   2.654   4.976   3.309
 3067SOL    HW1 9020   2.694   5.065   3.329
 3067SOL    HW2 9021   2.557   4.986   3.291
 3068SOL     OW 9022   3.700   3.887   2.832
 3068SOL    HW1 9023   3.722   3.793   2.805
 3068SOL    HW2 9024   3.609   3.911   2.796
 3069SOL     OW 9025   2.107   4.028   2.564
 3069SOL    HW1 9026   2.029   4.085   2.539
 3069SOL    HW2 9027   2.121   4.031   2.663
 3070SOL     OW 9028   3.141   0.249   1.872
 3070SOL    HW1 9029   3.102   0.178   1.931
 3070SOL    HW2 9030   3.070   0.286   1.812
 3071SOL     OW 9031   2.687   4.721   3.241
 3071SOL    HW1 9032   2.724   4.718   3.148
 3071SOL    HW2 9033   2.690   4.815   3.275
 3072SOL     OW 9034   2.778   4.645   2.121
 3072SOL    HW1 9035   2.859   4.687   2.081
 3072SOL    HW2 9036   2.803   4.561   2.169
 3073SOL     OW 9037   2.275   5.011   3.385
 3073SOL    HW1 9038   2.242   0.013   3.353
 3073SOL    HW2 9039   2.205   4.941   3.369
 3074SOL     OW 9040   3.474   4.986   3.159
 3074SOL    HW1 9041   3.534   4.967   3.237
 3074SOL    HW2 9042   3.397   5.043   3.189
 3075SOL     OW 9043   2.914   4.823   2.588
 3075SOL    HW1 9044   2.837   4.772   2.628
 3075SOL    HW2 9045   2.976   4.760   2.542
 3076SOL     OW 9046   2.889   3.969   2.851
 3076SOL    HW1 9047   2.865   3.927   2.764
 3076SOL    HW2 9048   2.894   3.898   2.922
 3077SOL     OW 9049   3.573   4.116   3.241
 3077SOL    HW1 9050   3.639   4.192   3.242
 3077SOL    HW2 9051   3.609   4.043   3.184
 3078SOL     OW 9052   1.983   4.720   3.563
 3078SOL    HW1 9053   1.908   4.716   3.629
 3078SOL    HW2 9054   2.069   4.696   3.608
 3079SOL     OW 9055   2.535   3.913   3.351
 3079SOL    HW1 9056   2.620   3.890   3.305
 3079SOL    HW2 9057   2.556   3.946   3.443
 3080SOL     OW 9058   1.956   4.072   1.872
 3080SOL    HW1 9059   1.859   4.059   1.852
 3080SOL    HW2 9060   1.995   4.139   1.808
 3081SOL     OW 9061   3.291   4.583   3.258
 3081SOL    HW1 9062   3.239   4.644   3.197
 3081SOL    HW2 9063   3.389   4.598   3.244
 3082SOL     OW 9064   1.907   3.893   2.168
 3082SOL    HW1 9065   1.894   3.981   2.123
 3082SOL    HW2 9066   1.996   3.855   2.142
 3083SOL     OW 9067   2.489   4.536   3.300
 3083SOL    HW1 9068   2.541   4.621   3.290
 3083SOL    HW2 9069   2.553   4.460   3.315
 3084SOL     OW 9070   2.594   4.265   3.550
 3084SOL    HW1 9071   2.622   4.325   3.625
 3084SOL    HW2 9072   2.613   4.170   3.575
 3085SOL     OW 9073   3.323   4.905   3.497
 3085SOL    HW1 9074   3.315   4.919   3.596
 3085SOL    HW2 9075   3.418   4.917   3.470
 3086SOL     OW 9076   3.550   4.599   3.108
 3086SOL    HW1 9077   3.531   4.505   3.080
 3086SOL    HW2 9078   3.518   4.662   3.038
 3087SOL     OW 9079   3.071   4.033   2.334
 3087SOL    HW1 9080   3.139   3.963   2.315
 3087SOL    HW2 9081   3.105   4.094   2.406
 3088SOL     OW 9082   2.462   4.435   2.502
 3088SOL    HW1 9083   2.500   4.527   2.508
 3088SOL    HW2 9084   2.383   4.435   2.440
 3089SOL     OW 9085   3.622   4.092   3.506
 3089SOL    HW1 9086   3.601   4.107   3.410
 3089SOL    HW2 9087   3.545   4.045   3.550
 3090SOL     OW 9088   3.616   4.656   3.369
 3090SOL    HW1 9089   3.626   4.755   3.379
 3090SOL    HW2 9090   3.605   4.634   3.272
 3091SOL     OW 9091   2.727   4.671   2.729
 3091SOL    HW1 9092   2.779   4.598   2.774
 3091SOL    HW2 9093   2.710   4.745   2.794
 3092SOL     OW 9094   2.994   4.750   1.954
 3092SOL    HW1 9095   2.938   4.777   1.876
 3092SOL    HW2 9096   3.054   4.674   1.927
 3093SOL     OW 9097   1.924   4.982   2.519
 3093SOL    HW1 9098   1.961   4.904   2.570
 3093SOL    HW2 9099   1.998   5.030   2.473
 3094SOL     OW 9100   3.674   3.910   3.095
 3094SOL    HW1 9101   3.683   3.813   3.116
 3094SOL    HW2 9102   3.685   3.924   2.996
 3095SOL     OW 9103   2.315   4.137   2.406
 3095SOL    HW1 9104   2.348   4.070   2.339
 3095SOL    HW2 9105   2.257   4.090   2.474
 3096SOL     OW 9106   2.197   4.255   3.148
 3096SOL    HW1 9107   2.280   4.225   3.195
 3096SOL    HW2 9108   2.204   4.235   3.050
 3097SOL     OW 9109   3.298   3.978   2.969
 3097SOL    HW1 9110   3.322   3.886   3.001
 3097SOL    HW2 9111   3.239   4.023   3.035
 3098SOL     OW 9112   2.879   3.722   3.025
 3098SOL    HW1 9113   2.814   3.655   2.989
 3098SOL    HW2 9114   2.972   3.684   3.020
 3099SOL     OW 9115   2.603   5.037   2.102
 3099SOL    HW1 9116   2.569   4.944   2.116
 3099SOL    HW2 9117   2.646   5.070   2.186
 3100SOL     OW 9118   3.181   3.741   2.035
 3100SOL    HW1 9119   3.202   3.684   1.956
 3100SOL    HW2 9120   3.093   3.714   2.073
 3101SOL     OW 9121   3.157   4.195   2.535
 3101SOL    HW1 9122   3.098   4.276   2.535
 3101SOL    HW2 9123   3.144   4.145   2.621
 3102SOL     OW 9124   3.452   3.934   2.742
 3102SOL    HW1 9125   3.388   3.954   2.816
 3102SOL    HW2 9126   3.452   4.009   2.676
 3103SOL     OW 9127   1.884   4.805   2.136
 3103SOL    HW1 9128   1.980   4.821   2.115
 3103SOL    HW2 9129   1.869   4.707   2.150
 3104SOL     OW 9130   2.095   4.360   3.847
 3104SOL    HW1 9131   2.000   4.350   3.878
 3104SOL    HW2 9132   2.101   4.334   3.750
 3105SOL     OW 9133   2.070   4.021   4.720
 3105SOL    HW1 9134   2.111   3.986   4.805
 3105SOL    HW2 9135   1.985   3.972   4.701
 3106SOL     OW 9136   1.866   4.134   4.330
 3106SOL    HW1 9137   1.781   4.150   4.382
 3106SOL    HW2 9138   1.872   4.037   4.306
 3107SOL     OW 9139   2.405   4.978   4.924
 3107SOL    HW1 9140   2.313   4.996   4.890
 3107SOL    HW2 9141   2.436   5.056   4.978
 3108SOL     OW 9142   3.384   0.130   4.419
 3108SOL    HW1 9143   3.328   0.104   4.498
 3108SOL    HW2 9144   3.330   0.120   4.335
 3109SOL     OW 9145   2.991   4.424   4.413
 3109SOL    HW1 9146   3.032   4.514   4.401
 3109SOL    HW2 9147   2.926   4.427   4.490
 3110SOL     OW 9148   3.641   4.314   3.944
 3110SOL    HW1 9149   3.612   4.320   3.849
 3110SOL    HW2 9150   3.595   4.236   3.988
 3111SOL     OW 9151   2.583   4.878   4.737
 3111SOL    HW1 9152   2.512   4.900   4.803
 3111SOL    HW2 9153   2.596   4.955   4.675
 3112SOL     OW 9154   2.537   4.735   4.380
 3112SOL    HW1 9155   2.607   4.720   4.450
 3112SOL    HW2 9156   2.468   4.797   4.415
 3113SOL     OW 9157   2.199   0.041   4.788
 3113SOL    HW1 9158   2.114   0.002   4.752
 3113SOL    HW2 9159   2.264   0.055   4.713
 3114SOL     OW 9160   3.470   4.173   4.448
 3114SOL    HW1 9161   3.401   4.205   4.384
 3114SOL    HW2 9162   3.463   4.224   4.534
 3115SOL     OW 9163   2.121   4.834   4.630
 3115SOL    HW1 9164   2.131   4.743   4.670
 3115SOL    HW2 9165   2.049   4.883   4.679
 3116SOL     OW 9166   2.431   4.718   3.856
 3116SOL    HW1 9167   2.467   4.771   3.780
 3116SOL    HW2 9168   2.476   4.746   3.941
 3117SOL     OW 9169   1.975   4.379   4.284
 3117SOL    HW1 9170   1.943   4.286   4.300
 3117SOL    HW2 9171   1.980   4.429   4.370
 3118SOL     OW 9172   3.552   4.654   4.367
 3118SOL    HW1 9173   3.635   4.609   4.333
 3118SOL    HW2 9174   3.512   4.709   4.293
 3119SOL     OW 9175   3.505   4.854   4.150
 3119SOL    HW1 9176   3.595   4.851   4.107
 3119SOL    HW2 9177   3.508   4.912   4.231
 3120SOL     OW 9178   2.705   3.723   4.234
 3120SOL    HW1 9179   2.747   3.813   4.221
 3120SOL    HW2 9180   2.606   3.732   4.234
 3121SOL     OW 9181   2.055   4.745   4.944
 3121SOL    HW1 9182   2.144   4.703   4.965
 3121SOL    HW2 9183   1.983   4.677   4.954
 3122SOL     OW 9184   3.400   4.724   3.928
 3122SOL    HW1 9185   3.323   4.665   3.954
 3122SOL    HW2 9186   3.440   4.766   4.010
 3123SOL     OW 9187   3.290   0.065   4.658
 3123SOL    HW1 9188   3.279   0.103   4.750
 3123SOL    HW2 9189   3.274   5.053   4.660
 3124SOL     OW 9190   2.439   4.429   4.000
 3124SOL    HW1 9191   2.451   4.521   3.964
 3124SOL    HW2 9192   2.359   4.427   4.059
 3125SOL     OW 9193   3.151   4.058   4.641
 3125SOL    HW1 9194   3.056   4.027   4.654
 3125SOL    HW2 9195   3.208   4.019   4.714
 3126SOL     OW 9196   2.842   4.062   4.942
 3126SOL    HW1 9197   2.835   4.134   5.010
 3126SOL    HW2 9198   2.762   4.064   4.883
 3127SOL     OW 9199   2.895   4.413   4.147
 3127SOL    HW1 9200   2.924   4.420   4.243
 3127SOL    HW2 9201   2.806   4.367   4.142
 3128SOL     OW 9202   1.982   4.547   4.503
 3128SOL    HW1 9203   2.061   4.543   4.565
 3128SOL    HW2 9204   1.924   4.625   4.528
 3129SOL     OW 9205   2.726   4.087   3.950
 3129SOL    HW1 9206   2.775   4.139   3.879
 3129SOL    HW2 9207   2.696   4.000   3.912
 3130SOL     OW 9208   3.240   4.871   4.264
 3130SOL    HW1 9209   3.318   4.847   4.206
 3130SOL    HW2 9210   3.199   4.956   4.229
 3131SOL     OW 9211   2.425   3.951   4.631
 3131SOL    HW1 9212   2.425   3.955   4.731
 3131SOL    HW2 9213   2.428   4.044   4.594
 3132SOL     OW 9214   3.679   4.752   4.593
 3132SOL    HW1 9215   3.624   4.739   4.511
 3132SOL    HW2 9216   3.619   4.753   4.674
 3133SOL     OW 9217   2.171   4.647   3.959
 3133SOL    HW1 9218   2.260   4.670   3.919
 3133SOL    HW2 9219   2.144   4.556   3.930
 3134SOL     OW 9220   3.345   4.482   4.414
 3134SOL    HW1 9221   3.348   4.421   4.493
 3134SOL    HW2 9222   3.428   4.537   4.411
 3135SOL     OW 9223   3.498   0.015   3.763
 3135SOL    HW1 9224   3.456   0.097   3.801
 3135SOL    HW2 9225   3.434   5.025   3.769
 3136SOL     OW 9226   3.257   3.834   4.161
 3136SOL    HW1 9227   3.244   3.794   4.070
 3136SOL    HW2 9228   3.354   3.848   4.178
 3137SOL     OW 9229   2.231   4.399   4.186
 3137SOL    HW1 9230   2.258   4.305   4.206
 3137SOL    HW2 9231   2.135   4.412   4.211
 3138SOL     OW 9232   2.508   3.859   3.813
 3138SOL    HW1 9233   2.575   3.796   3.853
 3138SOL    HW2 9234   2.450   3.810   3.748
 3139SOL     OW 9235   2.591   0.045   4.644
 3139SOL    HW1 9236   2.673   0.048   4.587
 3139SOL    HW2 9237   2.527   0.116   4.614
 3140SOL     OW 9238   2.789   4.217   4.632
 3140SOL    HW1 9239   2.755   4.220   4.538
 3140SOL    HW2 9240   2.829   4.127   4.650
 3141SOL     OW 9241   2.436   3.777   4.207
 3141SOL    HW1 9242   2.367   3.780   4.279
 3141SOL    HW2 9243   2.422   3.854   4.144
 3142SOL     OW 9244   3.277   4.916   3.773
 3142SOL    HW1 9245   3.335   4.850   3.821
 3142SOL    HW2 9246   3.186   4.878   3.762
 3143SOL     OW 9247   2.148   3.769   3.911
 3143SOL    HW1 9248   2.200   3.848   3.878
 3143SOL    HW2 9249   2.210   3.704   3.954
 3144SOL     OW 9250   2.809   3.972   4.209
 3144SOL    HW1 9251   2.770   4.021   4.131
 3144SOL    HW2 9252   2.907   3.990   4.215
 3145SOL     OW 9253   3.110   0.173   4.463
 3145SOL    HW1 9254   3.110   0.272   4.447
 3145SOL    HW2 9255   3.154   0.154   4.550
 3146SOL     OW 9256   2.331   4.899   4.470
 3146SOL    HW1 9257   2.260   4.871   4.535
 3146SOL    HW2 9258   2.302   4.876   4.377
 3147SOL     OW 9259   2.923   4.262   3.737
 3147SOL    HW1 9260   2.865   4.343   3.731
 3147SOL    HW2 9261   2.993   4.276   3.806
 3148SOL     OW 9262   2.444   3.941   4.905
 3148SOL    HW1 9263   2.484   3.857   4.942
 3148SOL    HW2 9264   2.349   3.950   4.936
 3149SOL     OW 9265   2.732   4.198   4.370
 3149SOL    HW1 9266   2.689   4.240   4.290
 3149SOL    HW2 9267   2.766   4.107   4.345
 3150SOL     OW 9268   2.936   3.756   4.508
 3150SOL    HW1 9269   2.874   3.781   4.434
 3150SOL    HW2 9270   2.905   3.670   4.549
 3151SOL     OW 9271   3.296   4.873   4.614
 3151SOL    HW1 9272   3.237   4.793   4.614
 3151SOL    HW2 9273   3.317   4.898   4.519
 3152SOL     OW 9274   3.378   4.313   4.673
 3152SOL    HW1 9275   3.312   4.238   4.671
 3152SOL    HW2 9276   3.429   4.310   4.760
 3153SOL     OW 9277   3.699   4.530   4.129
 3153SOL    HW1 9278   3.761   4.477   4.187
 3153SOL    HW2 9279   3.687   4.483   4.042
 3154SOL     OW 9280   3.525   4.988   4.391
 3154SOL    HW1 9281   3.625   4.988   4.404
 3154SOL    HW2 9282   3.488   5.075   4.424
 3155SOL     OW 9283   3.265   4.309   3.790
 3155SOL    HW1 9284   3.214   4.275   3.869
 3155SOL    HW2 9285   3.363   4.299   3.806
 3156SOL     OW 9286   2.385   3.962   4.029
 3156SOL    HW1 9287   2.431   3.932   3.946
 3156SOL    HW2 9288   2.333   4.045   4.010
 3157SOL     OW 9289   3.484   4.806   4.800
 3157SOL    HW1 9290   3.468   4.852   4.888
 3157SOL    HW2 9291   3.410   4.831   4.737
 3158SOL     OW 9292   2.572   4.791   4.068
 3158SOL    HW1 9293   2.559   4.776   4.166
 3158SOL    HW2 9294   2.655   4.745   4.037
 3159SOL     OW 9295   2.301   4.583   5.000
 3159SOL    HW1 9296   2.353   4.599   5.084
 3159SOL    HW2 9297   2.244   4.502   5.010
 3160SOL     OW 9298   3.129   4.099   4.988
 3160SOL    HW1 9299   3.151   4.172   5.052
 3160SOL    HW2 9300   3.034   4.108   4.959
 3161SOL     OW 9301   2.249   4.814   4.219
 3161SOL    HW1 9302   2.271   4.895   4.164
 3161SOL    HW2 9303   2.224   4.738   4.159
 3162SOL     OW 9304   2.435   4.239   4.575
 3162SOL    HW1 9305   2.446   4.295   4.493
 3162SOL    HW2 9306   2.480   4.284   4.653
 3163SOL     OW 9307   3.463   4.352   4.195
 3163SOL    HW1 9308   3.398   4.405   4.250
 3163SOL    HW2 9309   3.537   4.411   4.165
 3164SOL     OW 9310   2.446   4.618   4.755
 3164SOL    HW1 9311   2.487   4.708   4.744
 3164SOL    HW2 9312   2.401   4.612   4.844
 3165SOL     OW 9313   3.240   4.564   4.718
 3165SOL    HW1 9314   3.149   4.549   4.680
 3165SOL    HW2 9315   3.293   4.479   4.710
 3166SOL     OW 9316   3.085   4.242   3.989
 3166SOL    HW1 9317   3.105   4.165   4.049
 3166SOL    HW2 9318   3.021   4.305   4.034
 3167SOL     OW 9319   2.181   3.925   4.971
 3167SOL    HW1 9320   2.148   3.946   5.063
 3167SOL    HW2 9321   2.158   3.830   4.949
 3168SOL     OW 9322   2.561   4.368   4.784
 3168SOL    HW1 9323   2.651   4.354   4.744
 3168SOL    HW2 9324   2.527   4.459   4.757
 3169SOL     OW 9325   2.208   3.803   4.358
 3169SOL    HW1 9326   2.168   3.893   4.370
 3169SOL    HW2 9327   2.209   3.754   4.445
 3170SOL     OW 9328   3.454   4.105   4.082
 3170SOL    HW1 9329   3.490   4.033   4.141
 3170SOL    HW2 9330   3.452   4.192   4.133
 3171SOL     OW 9331   2.880   4.457   4.701
 3171SOL    HW1 9332   2.875   4.466   4.800
 3171SOL    HW2 9333   2.859   4.362   4.675
 3172SOL     OW 9334   3.375   3.968   3.857
 3172SOL    HW1 9335   3.302   3.905   3.884
 3172SOL    HW2 9336   3.407   4.018   3.937
 3173SOL     OW 9337   3.167   4.554   3.758
 3173SOL    HW1 9338   3.202   4.461   3.767
 3173SOL    HW2 9339   3.177   4.584   3.663
 3174SOL     OW 9340   2.184   4.533   4.687
 3174SOL    HW1 9341   2.281   4.555   4.695
 3174SOL    HW2 9342   2.169   4.439   4.718
 3175SOL     OW 9343   2.212   4.256   4.732
 3175SOL    HW1 9344   2.165   4.168   4.730
 3175SOL    HW2 9345   2.289   4.255   4.668
 3176SOL     OW 9346   3.046   3.965   0.132
 3176SOL    HW1 9347   3.006   4.043   0.181
 3176SOL    HW2 9348   3.066   3.992   0.038
 3177SOL     OW 9349   1.865   5.052   3.884
 3177SOL    HW1 9350   1.781   5.073   3.834
 3177SOL    HW2 9351   1.856   4.964   3.930
 3178SOL     OW 9352   2.846   4.478   4.970
 3178SOL    HW1 9353   2.921   4.521   5.020
 3178SOL    HW2 9354   2.759   4.517   4.999
 3179SOL     OW 9355   1.921   4.276   4.858
 3179SOL    HW1 9356   1.958   4.247   4.769
 3179SOL    HW2 9357   1.959   4.218   4.930
 3180SOL     OW 9358   2.656   4.288   4.116
 3180SOL    HW1 9359   2.668   4.216   4.048
 3180SOL    HW2 9360   2.578   4.345   4.090
 3181SOL     OW 9361   3.518   4.322   4.909
 3181SOL    HW1 9362   3.509   4.258   4.985
 3181SOL    HW2 9363   3.609   4.312   4.868
 3182SOL     OW 9364   2.556   4.184   4.987
 3182SOL    HW1 9365   2.508   4.105   4.950
 3182SOL    HW2 9366   2.545   4.262   4.926
 3183SOL     OW 9367   2.299   4.195   3.922
 3183SOL    HW1 9368   2.371   4.263   3.937
 3183SOL    HW2 9369   2.211   4.242   3.912
 3184SOL     OW 9370   3.178   4.728   4.920
 3184SOL    HW1 9371   3.217   4.667   4.850
 3184SOL    HW2 9372   3.154   4.816   4.879
 3185SOL     OW 9373   3.172   4.591   4.024
 3185SOL    HW1 9374   3.092   4.550   4.068
 3185SOL    HW2 9375   3.165   4.579   3.925
 3186SOL     OW 9376   1.930   4.987   4.723
 3186SOL    HW1 9377   1.936   4.961   4.820
 3186SOL    HW2 9378   1.860   4.931   4.678
 3187SOL     OW 9379   3.531   3.842   4.207
 3187SOL    HW1 9380   3.615   3.852   4.154
 3187SOL    HW2 9381   3.532   3.754   4.255
 3188SOL     OW 9382   3.130   4.665   4.398
 3188SOL    HW1 9383   3.206   4.600   4.397
 3188SOL    HW2 9384   3.154   4.746   4.345
 3189SOL     OW 9385   2.710   4.945   0.027
 3189SOL    HW1 9386   2.712   4.970   0.123
 3189SOL    HW2 9387   2.630   4.985   5.070
 3190SOL     OW 9388   3.703   3.894   4.702
 3190SOL    HW1 9389   3.722   3.801   4.672
 3190SOL    HW2 9390   3.615   3.924   4.667
 3191SOL     OW 9391   2.114   4.047   4.435
 3191SOL    HW1 9392   2.035   4.102   4.408
 3191SOL    HW2 9393   2.124   4.050   4.534
 3192SOL     OW 9394   3.145   0.252   3.748
 3192SOL    HW1 9395   3.108   0.178   3.804
 3192SOL    HW2 9396   3.074   0.288   3.689
 3193SOL     OW 9397   2.657   4.674   5.072
 3193SOL    HW1 9398   2.667   4.735   4.994
 3193SOL    HW2 9399   2.689   4.720   0.068
 3194SOL     OW 9400   2.782   4.645   3.986
 3194SOL    HW1 9401   2.861   4.685   3.939
 3194SOL    HW2 9402   2.813   4.569   4.044
 3195SOL     OW 9403   2.904   4.840   4.424
 3195SOL    HW1 9404   2.827   4.790   4.463
 3195SOL    HW2 9405   2.980   4.777   4.409
 3196SOL     OW 9406   2.906   3.949   4.687
 3196SOL    HW1 9407   2.919   3.882   4.613
 3196SOL    HW2 9408   2.896   3.901   4.774
 3197SOL     OW 9409   3.624   4.140   5.079
 3197SOL    HW1 9410   3.656   4.156   0.085
 3197SOL    HW2 9411   3.632   4.042   5.058
 3198SOL     OW 9412   1.961   4.069   3.728
 3198SOL    HW1 9413   1.862   4.065   3.714
 3198SOL    HW2 9414   2.001   4.138   3.667
 3199SOL     OW 9415   1.912   3.889   4.023
 3199SOL    HW1 9416   1.900   3.983   3.992
 3199SOL    HW2 9417   1.995   3.852   3.982
 3200SOL     OW 9418   3.334   4.970   0.336
 3200SOL    HW1 9419   3.406   4.934   0.394
 3200SOL    HW2 9420   3.343   4.932   0.244
 3201SOL     OW 9421   3.517   4.586   4.977
 3201SOL    HW1 9422   3.515   4.490   4.951
 3201SOL    HW2 9423   3.500   4.643   4.896
 3202SOL     OW 9424   3.075   4.039   4.209
 3202SOL    HW1 9425   3.142   3.967   4.193
 3202SOL    HW2 9426   3.108   4.100   4.281
 3203SOL     OW 9427   2.446   4.437   4.370
 3203SOL    HW1 9428   2.481   4.530   4.380
 3203SOL    HW2 9429   2.367   4.438   4.309
 3204SOL     OW 9430   3.656   4.576   0.132
 3204SOL    HW1 9431   3.663   4.667   0.172
 3204SOL    HW2 9432   3.600   4.580   0.049
 3205SOL     OW 9433   2.728   4.669   4.576
 3205SOL    HW1 9434   2.772   4.590   4.621
 3205SOL    HW2 9435   2.698   4.734   4.645
 3206SOL     OW 9436   2.986   4.748   3.816
 3206SOL    HW1 9437   2.934   4.779   3.736
 3206SOL    HW2 9438   3.043   4.670   3.791
 3207SOL     OW 9439   1.923   4.979   4.406
 3207SOL    HW1 9440   1.970   4.908   4.459
 3207SOL    HW2 9441   1.985   5.014   4.336
 3208SOL     OW 9442   3.670   3.891   4.975
 3208SOL    HW1 9443   3.715   3.802   4.972
 3208SOL    HW2 9444   3.667   3.930   4.883
 3209SOL     OW 9445   2.296   4.151   4.248
 3209SOL    HW1 9446   2.371   4.097   4.209
 3209SOL    HW2 9447   2.256   4.102   4.325
 3210SOL     OW 9448   3.299   3.961   4.841
 3210SOL    HW1 9449   3.347   3.889   4.892
 3210SOL    HW2 9450   3.240   4.013   4.903
 3211SOL     OW 9451   2.867   3.681   4.885
 3211SOL    HW1 9452   2.845   3.651   4.792
 3211SOL    HW2 9453   2.964   3.665   4.903
 3212SOL     OW 9454   2.611   5.049   3.964
 3212SOL    HW1 9455   2.571   4.961   3.991
 3212SOL    HW2 9456   2.665   5.086   4.039
 3213SOL     OW 9457   3.175   3.759   3.899
 3213SOL    HW1 9458   3.196   3.703   3.819
 3213SOL    HW2 9459   3.088   3.729   3.938
 3214SOL     OW 9460   3.153   4.197   4.413
 3214SOL    HW1 9461   3.092   4.276   4.411
 3214SOL    HW2 9462   3.142   4.148   4.499
 3215SOL     OW 9463   3.461   3.966   4.622
 3215SOL    HW1 9464   3.383   3.969   4.684
 3215SOL    HW2 9465   3.441   4.021   4.541
 3216SOL     OW 9466   1.885   4.799   4.016
 3216SOL    HW1 9467   1.980   4.812   3.988
 3216SOL    HW2 9468   1.870   4.703   4.039
 3217SOL     OW 9469   3.930   0.620   0.102
 3217SOL    HW1 9470   3.844   0.631   0.150
 3217SOL    HW2 9471   3.924   0.541   0.040
 3218SOL     OW 9472   3.942   0.309   1.004
 3218SOL    HW1 9473   3.979   0.285   1.094
 3218SOL    HW2 9474   3.856   0.259   0.989
 3219SOL     OW 9475   3.739   0.411   0.638
 3219SOL    HW1 9476   3.648   0.425   0.676
 3219SOL    HW2 9477   3.734   0.350   0.559
 3220SOL     OW 9478   4.266   1.290   1.195
 3220SOL    HW1 9479   4.177   1.287   1.150
 3220SOL    HW2 9480   4.289   1.385   1.216
 3221SOL     OW 9481   4.842   0.721   0.682
 3221SOL    HW1 9482   4.891   0.806   0.662
 3221SOL    HW2 9483   4.809   0.723   0.777
 3222SOL     OW 9484   4.441   1.160   1.019
 3222SOL    HW1 9485   4.376   1.194   1.087
 3222SOL    HW2 9486   4.478   1.237   0.966
 3223SOL     OW 9487   4.599   0.756   1.823
 3223SOL    HW1 9488   4.576   0.818   1.897
 3223SOL    HW2 9489   4.614   0.807   1.738
 3224SOL     OW 9490   4.425   1.022   0.639
 3224SOL    HW1 9491   4.485   0.991   0.713
 3224SOL    HW2 9492   4.347   1.071   0.679
 3225SOL     OW 9493   4.429   1.169   1.799
 3225SOL    HW1 9494   4.478   1.252   1.826
 3225SOL    HW2 9495   4.341   1.194   1.757
 3226SOL     OW 9496   4.036   1.429   1.065
 3226SOL    HW1 9497   3.962   1.378   1.021
 3226SOL    HW2 9498   4.086   1.481   0.996
 3227SOL     OW 9499   4.147   0.396   1.511
 3227SOL    HW1 9500   4.234   0.352   1.490
 3227SOL    HW2 9501   4.072   0.330   1.501
 3228SOL     OW 9502   3.968   1.728   0.494
 3228SOL    HW1 9503   3.989   1.813   0.543
 3228SOL    HW2 9504   4.026   1.722   0.413
 3229SOL     OW 9505   4.831   1.353   1.703
 3229SOL    HW1 9506   4.856   1.340   1.799
 3229SOL    HW2 9507   4.782   1.271   1.670
 3230SOL     OW 9508   3.993   1.458   0.530
 3230SOL    HW1 9509   3.985   1.557   0.529
 3230SOL    HW2 9510   3.920   1.420   0.587
 3231SOL     OW 9511   3.994   1.099   0.902
 3231SOL    HW1 9512   4.003   1.008   0.942
 3231SOL    HW2 9513   3.936   1.156   0.960
 3232SOL     OW 9514   4.332   1.794   1.420
 3232SOL    HW1 9515   4.250   1.766   1.470
 3232SOL    HW2 9516   4.356   1.887   1.446
 3233SOL     OW 9517   4.305   0.980   0.134
 3233SOL    HW1 9518   4.373   1.008   0.067
 3233SOL    HW2 9519   4.324   1.022   0.223
 3234SOL     OW 9520   3.827   0.665   0.557
 3234SOL    HW1 9521   3.810   0.572   0.590
 3234SOL    HW2 9522   3.833   0.728   0.635
 3235SOL     OW 9523   3.758   1.557   0.122
 3235SOL    HW1 9524   3.673   1.504   0.116
 3235SOL    HW2 9525   3.751   1.624   0.196
 3236SOL     OW 9526   3.857   0.751   1.576
 3236SOL    HW1 9527   3.954   0.770   1.563
 3236SOL    HW2 9528   3.815   0.825   1.628
 3237SOL     OW 9529   4.313   1.395   0.736
 3237SOL    HW1 9530   4.275   1.304   0.748
 3237SOL    HW2 9531   4.303   1.423   0.640
 3238SOL     OW 9532   4.982   1.216   1.446
 3238SOL    HW1 9533   4.992   1.149   1.372
 3238SOL    HW2 9534   5.054   1.202   1.513
 3239SOL     OW 9535   4.568   0.036   0.554
 3239SOL    HW1 9536   4.588   0.127   0.518
 3239SOL    HW2 9537   4.471   0.014   0.540
 3240SOL     OW 9538   3.893   0.963   1.242
 3240SOL    HW1 9539   3.987   0.934   1.227
 3240SOL    HW2 9540   3.831   0.900   1.196
 3241SOL     OW 9541   4.926   1.811   1.576
 3241SOL    HW1 9542   4.899   1.888   1.519
 3241SOL    HW2 9543   4.903   1.725   1.530
 3242SOL     OW 9544   4.034   0.247   1.780
 3242SOL    HW1 9545   4.082   0.334   1.790
 3242SOL    HW2 9546   3.941   0.255   1.817
 3243SOL     OW 9547   4.302   0.731   0.272
 3243SOL    HW1 9548   4.315   0.820   0.228
 3243SOL    HW2 9549   4.231   0.739   0.342
 3244SOL     OW 9550   5.041   0.290   0.983
 3244SOL    HW1 9551   4.946   0.277   0.957
 3244SOL    HW2 9552   5.047   0.322   1.077
 3245SOL     OW 9553   4.530   0.606   1.462
 3245SOL    HW1 9554   4.501   0.587   1.556
 3245SOL    HW2 9555   4.472   0.554   1.399
 3246SOL     OW 9556   4.666   0.874   1.578
 3246SOL    HW1 9557   4.732   0.805   1.549
 3246SOL    HW2 9558   4.628   0.920   1.498
 3247SOL     OW 9559   4.729   0.414   1.223
 3247SOL    HW1 9560   4.647   0.452   1.264
 3247SOL    HW2 9561   4.704   0.357   1.144
 3248SOL     OW 9562   4.729   0.705   0.430
 3248SOL    HW1 9563   4.764   0.708   0.524
 3248SOL    HW2 9564   4.650   0.644   0.427
 3249SOL     OW 9565   3.839   0.831   0.775
 3249SOL    HW1 9566   3.918   0.830   0.837
 3249SOL    HW2 9567   3.780   0.909   0.798
 3250SOL     OW 9568   3.826   1.860   1.568
 3250SOL    HW1 9569   3.852   1.830   1.659
 3250SOL    HW2 9570   3.727   1.852   1.558
 3251SOL     OW 9571   4.606   0.366   0.232
 3251SOL    HW1 9572   4.641   0.435   0.168
 3251SOL    HW2 9573   4.592   0.280   0.183
 3252SOL     OW 9574   4.249   0.228   0.898
 3252SOL    HW1 9575   4.269   0.244   0.994
 3252SOL    HW2 9576   4.235   0.316   0.852
 3253SOL     OW 9577   4.712   1.441   0.510
 3253SOL    HW1 9578   4.688   1.503   0.435
 3253SOL    HW2 9579   4.697   1.487   0.597
 3254SOL     OW 9580   4.070   1.814   0.848
 3254SOL    HW1 9581   4.117   1.726   0.858
 3254SOL    HW2 9582   4.129   1.887   0.881
 3255SOL     OW 9583   4.936   1.548   1.478
 3255SOL    HW1 9584   4.941   1.501   1.566
 3255SOL    HW2 9585   4.880   1.495   1.415
 3256SOL     OW 9586   4.044   0.963   0.250
 3256SOL    HW1 9587   4.124   0.983   0.194
 3256SOL    HW2 9588   4.012   0.870   0.231
 3257SOL     OW 9589   4.184   1.267   1.709
 3257SOL    HW1 9590   4.140   1.270   1.619
 3257SOL    HW2 9591   4.115   1.284   1.780
 3258SOL     OW 9592   4.836   1.773   0.237
 3258SOL    HW1 9593   4.790   1.707   0.297
 3258SOL    HW2 9594   4.860   1.728   0.151
 3259SOL     OW 9595   3.894   0.292   1.479
 3259SOL    HW1 9596   3.834   0.372   1.479
 3259SOL    HW2 9597   3.849   0.217   1.528
 3260SOL     OW 9598   0.243   1.352   0.079
 3260SOL    HW1 9599   0.241   1.417   0.003
 3260SOL    HW2 9600   0.150   1.323   0.100
 3261SOL     OW 9601   4.163   1.733   0.304
 3261SOL    HW1 9602   4.220   1.791   0.360
 3261SOL    HW2 9603   4.220   1.677   0.243
 3262SOL     OW 9604   3.968   1.790   1.211
 3262SOL    HW1 9605   4.031   1.719   1.243
 3262SOL    HW2 9606   3.935   1.765   1.120
 3263SOL     OW 9607   4.696   1.702   0.898
 3263SOL    HW1 9608   4.786   1.664   0.917
 3263SOL    HW2 9609   4.645   1.640   0.838
 3264SOL     OW 9610   4.097   0.678   0.452
 3264SOL    HW1 9611   4.125   0.583   0.461
 3264SOL    HW2 9612   4.004   0.690   0.487
 3265SOL     OW 9613   4.327   0.111   0.080
 3265SOL    HW1 9614   4.423   0.117   0.107
 3265SOL    HW2 9615   4.312   0.164   5.084
 3266SOL     OW 9616   4.471   0.292   1.745
 3266SOL    HW1 9617   4.563   0.256   1.730
 3266SOL    HW2 9618   4.432   0.248   1.826
 3267SOL     OW 9619   4.584   1.518   1.172
 3267SOL    HW1 9620   4.579   1.487   1.077
 3267SOL    HW2 9621   4.657   1.469   1.219
 3268SOL     OW 9622   4.530   1.416   0.910
 3268SOL    HW1 9623   4.618   1.388   0.873
 3268SOL    HW2 9624   4.461   1.413   0.839
 3269SOL     OW 9625   4.674   0.463   0.912
 3269SOL    HW1 9626   4.654   0.463   0.814
 3269SOL    HW2 9627   4.708   0.373   0.939
 3270SOL     OW 9628   4.294   0.043   0.477
 3270SOL    HW1 9629   4.214   0.039   0.536
 3270SOL    HW2 9630   4.285   0.120   0.414
 3271SOL     OW 9631   4.021   0.061   0.170
 3271SOL    HW1 9632   4.105   0.113   0.185
 3271SOL    HW2 9633   4.040   5.050   0.183
 3272SOL     OW 9634   4.689   0.266   0.462
 3272SOL    HW1 9635   4.646   0.309   0.383
 3272SOL    HW2 9636   4.788   0.281   0.459
 3273SOL     OW 9637   4.805   0.652   1.472
 3273SOL    HW1 9638   4.706   0.635   1.472
 3273SOL    HW2 9639   4.851   0.574   1.515
 3274SOL     OW 9640   4.963   1.566   0.799
 3274SOL    HW1 9641   4.973   1.621   0.716
 3274SOL    HW2 9642   5.051   1.524   0.821
 3275SOL     OW 9643   4.205   1.144   0.732
 3275SOL    HW1 9644   4.136   1.120   0.800
 3275SOL    HW2 9645   4.164   1.141   0.640
 3276SOL     OW 9646   5.026   1.825   0.581
 3276SOL    HW1 9647   5.053   1.897   0.517
 3276SOL    HW2 9648   4.957   1.861   0.644
 3277SOL     OW 9649   4.722   0.551   0.073
 3277SOL    HW1 9650   4.714   0.634   0.018
 3277SOL    HW2 9651   4.798   0.560   0.137
 3278SOL     OW 9652   3.765   0.563   1.388
 3278SOL    HW1 9653   3.861   0.551   1.362
 3278SOL    HW2 9654   3.757   0.641   1.450
 3279SOL     OW 9655   4.276   0.252   1.182
 3279SOL    HW1 9656   4.324   0.202   1.255
 3279SOL    HW2 9657   4.178   0.253   1.201
 3280SOL     OW 9658   4.625   0.449   0.652
 3280SOL    HW1 9659   4.554   0.508   0.614
 3280SOL    HW2 9660   4.650   0.378   0.586
 3281SOL     OW 9661   4.759   0.041   0.735
 3281SOL    HW1 9662   4.688   0.046   0.666
 3281SOL    HW2 9663   4.781   5.032   0.754
 3282SOL     OW 9664   4.225   1.390   0.160
 3282SOL    HW1 9665   4.151   1.368   0.224
 3282SOL    HW2 9666   4.186   1.419   0.072
 3283SOL     OW 9667   0.303   1.332   0.763
 3283SOL    HW1 9668   0.369   1.258   0.752
 3283SOL    HW2 9669   0.295   1.383   0.677
 3284SOL     OW 9670   4.242   0.246   0.293
 3284SOL    HW1 9671   4.283   0.195   0.217
 3284SOL    HW2 9672   4.229   0.341   0.266
 3285SOL     OW 9673   4.774   1.355   1.345
 3285SOL    HW1 9674   4.686   1.327   1.383
 3285SOL    HW2 9675   4.848   1.305   1.390
 3286SOL     OW 9676   4.842   1.232   1.104
 3286SOL    HW1 9677   4.810   1.286   1.183
 3286SOL    HW2 9678   4.811   1.276   1.020
 3287SOL     OW 9679   4.642   0.152   1.404
 3287SOL    HW1 9680   4.645   0.156   1.304
 3287SOL    HW2 9681   4.734   0.167   1.440
 3288SOL     OW 9682   4.690   1.107   1.729
 3288SOL    HW1 9683   4.598   1.130   1.760
 3288SOL    HW2 9684   4.685   1.028   1.668
 3289SOL     OW 9685   4.441   1.069   0.366
 3289SOL    HW1 9686   4.428   1.062   0.465
 3289SOL    HW2 9687   4.521   1.015   0.339
 3290SOL     OW 9688   4.140   0.805   1.255
 3290SOL    HW1 9689   4.211   0.812   1.325
 3290SOL    HW2 9690   4.090   0.719   1.266
 3291SOL     OW 9691   4.999   0.373   1.253
 3291SOL    HW1 9692   5.047   0.445   1.302
 3291SOL    HW2 9693   4.904   0.400   1.238
 3292SOL     OW 9694   3.800   1.570   1.335
 3292SOL    HW1 9695   3.800   1.665   1.304
 3292SOL    HW2 9696   3.894   1.536   1.341
 3293SOL     OW 9697   4.103   1.138   0.486
 3293SOL    HW1 9698   4.117   1.215   0.424
 3293SOL    HW2 9699   4.075   1.058   0.433
 3294SOL     OW 9700   4.261   0.541   0.828
 3294SOL    HW1 9701   4.266   0.618   0.764
 3294SOL    HW2 9702   4.335   0.550   0.896
 3295SOL     OW 9703   4.968   1.350   0.452
 3295SOL    HW1 9704   5.004   1.443   0.442
 3295SOL    HW2 9705   4.874   1.354   0.484
 3296SOL     OW 9706   4.068   1.498   1.311
 3296SOL    HW1 9707   4.049   1.470   1.217
 3296SOL    HW2 9708   4.165   1.520   1.321
 3297SOL     OW 9709   4.142   0.724   1.599
 3297SOL    HW1 9710   4.214   0.769   1.547
 3297SOL    HW2 9711   4.163   0.627   1.609
 3298SOL     OW 9712   4.723   0.153   1.726
 3298SOL    HW1 9713   4.792   0.195   1.667
 3298SOL    HW2 9714   4.733   0.053   1.723
 3299SOL     OW 9715   4.204   0.019   1.772
 3299SOL    HW1 9716   4.182   5.054   1.689
 3299SOL    HW2 9717   4.140   0.095   1.781
 3300SOL     OW 9718   4.319   0.867   1.051
 3300SOL    HW1 9719   4.343   0.964   1.046
 3300SOL    HW2 9720   4.254   0.853   1.127
 3301SOL     OW 9721   5.059   0.862   1.038
 3301SOL    HW1 9722   4.974   0.839   0.990
 3301SOL    HW2 9723   0.016   0.778   1.070
 3302SOL     OW 9724   4.905   0.545   0.277
 3302SOL    HW1 9725   4.914   0.458   0.324
 3302SOL    HW2 9726   4.857   0.610   0.335
 3303SOL     OW 9727   4.021   0.217   1.247
 3303SOL    HW1 9728   3.968   0.230   1.331
 3303SOL    HW2 9729   4.014   0.122   1.218
 3304SOL     OW 9730   3.764   1.293   1.286
 3304SOL    HW1 9731   3.796   1.226   1.354
 3304SOL    HW2 9732   3.767   1.385   1.326
 3305SOL     OW 9733   4.428   0.602   1.031
 3305SOL    HW1 9734   4.522   0.589   1.000
 3305SOL    HW2 9735   4.405   0.700   1.028
 3306SOL     OW 9736   4.058   0.040   0.606
 3306SOL    HW1 9737   4.022   0.129   0.634
 3306SOL    HW2 9738   4.095   5.079   0.685
 3307SOL     OW 9739   0.235   0.431   0.293
 3307SOL    HW1 9740   0.278   0.348   0.328
 3307SOL    HW2 9741   0.190   0.480   0.368
 3308SOL     OW 9742   4.760   0.736   0.950
 3308SOL    HW1 9743   4.751   0.760   1.046
 3308SOL    HW2 9744   4.740   0.639   0.938
 3309SOL     OW 9745   4.682   1.573   1.690
 3309SOL    HW1 9746   4.680   1.622   1.603
 3309SOL    HW2 9747   4.721   1.482   1.676
 3310SOL     OW 9748   4.068   0.904   1.790
 3310SOL    HW1 9749   4.147   0.937   1.841
 3310SOL    HW2 9750   4.095   0.829   1.730
 3311SOL     OW 9751   5.011   0.821   0.024
 3311SOL    HW1 9752   0.010   0.769   0.022
 3311SOL    HW2 9753   5.011   0.888   5.037
 3312SOL     OW 9754   4.798   1.349   0.868
 3312SOL    HW1 9755   4.811   1.271   0.807
 3312SOL    HW2 9756   4.860   1.423   0.842
 3313SOL     OW 9757   4.044   0.823   0.966
 3313SOL    HW1 9758   4.142   0.838   0.958
 3313SOL    HW2 9759   4.026   0.727   0.990
 3314SOL     OW 9760   4.061   0.545   1.007
 3314SOL    HW1 9761   4.012   0.458   0.995
 3314SOL    HW2 9762   4.134   0.552   0.939
 3315SOL     OW 9763   4.851   0.405   1.666
 3315SOL    HW1 9764   4.780   0.429   1.732
 3315SOL    HW2 9765   4.941   0.410   1.710
 3316SOL     OW 9766   4.894   0.220   1.469
 3316SOL    HW1 9767   4.882   0.296   1.533
 3316SOL    HW2 9768   4.942   0.253   1.387
 3317SOL     OW 9769   3.832   1.775   0.968
 3317SOL    HW1 9770   3.781   1.704   0.920
 3317SOL    HW2 9771   3.918   1.792   0.920
 3318SOL     OW 9772   4.214   1.580   0.913
 3318SOL    HW1 9773   4.290   1.641   0.935
 3318SOL    HW2 9774   4.245   1.509   0.849
 3319SOL     OW 9775   4.713   0.756   1.226
 3319SOL    HW1 9776   4.779   0.733   1.297
 3319SOL    HW2 9777   4.624   0.718   1.251
 3320SOL     OW 9778   3.741   0.514   1.097
 3320SOL    HW1 9779   3.823   0.501   1.040
 3320SOL    HW2 9780   3.770   0.537   1.190
 3321SOL     OW 9781   3.948   0.523   1.715
 3321SOL    HW1 9782   3.994   0.462   1.650
 3321SOL    HW2 9783   3.911   0.602   1.666
 3322SOL     OW 9784   4.508   0.553   0.397
 3322SOL    HW1 9785   4.538   0.484   0.331
 3322SOL    HW2 9786   4.432   0.605   0.359
 3323SOL     OW 9787   3.979   1.534   1.714
 3323SOL    HW1 9788   3.958   1.612   1.773
 3323SOL    HW2 9789   3.981   1.450   1.769
 3324SOL     OW 9790   4.403   0.478   1.264
 3324SOL    HW1 9791   4.358   0.391   1.244
 3324SOL    HW2 9792   4.398   0.537   1.184
 3325SOL     OW 9793   4.653   1.713   1.470
 3325SOL    HW1 9794   4.614   1.678   1.385
 3325SOL    HW2 9795   4.651   1.813   1.470
 3326SOL     OW 9796   4.184   0.496   0.208
 3326SOL    HW1 9797   4.250   0.571   0.219
 3326SOL    HW2 9798   4.093   0.534   0.191
 3327SOL     OW 9799   3.840   1.109   1.455
 3327SOL    HW1 9800   3.846   1.060   1.542
 3327SOL    HW2 9801   3.851   1.044   1.380
 3328SOL     OW 9802   4.992   1.048   1.232
 3328SOL    HW1 9803   5.032   0.987   1.164
 3328SOL    HW2 9804   4.934   1.116   1.187
 3329SOL     OW 9805   4.975   1.713   1.109
 3329SOL    HW1 9806   5.047   1.755   1.054
 3329SOL    HW2 9807   5.016   1.650   1.175
 3330SOL     OW 9808   3.817   1.253   1.027
 3330SOL    HW1 9809   3.793   1.266   1.124
 3330SOL    HW2 9810   3.744   1.201   0.982
 3331SOL     OW 9811   4.426   1.649   1.762
 3331SOL    HW1 9812   4.374   1.725   1.723
 3331SOL    HW2 9813   4.520   1.653   1.728
 3332SOL     OW 9814   4.593   0.138   0.102
 3332SOL    HW1 9815   4.674   0.148   0.045
 3332SOL    HW2 9816   4.601   0.056   0.158
 3333SOL     OW 9817   5.065   1.591   0.416
 3333SOL    HW1 9818   0.070   1.573   0.381
 3333SOL    HW2 9819   5.068   1.665   0.483
 3334SOL     OW 9820   3.891   1.777   1.823
 3334SOL    HW1 9821   3.835   1.713   1.876
 3334SOL    HW2 9822   3.948   1.830   1.886
 3335SOL     OW 9823   4.992   0.948   0.624
 3335SOL    HW1 9824   5.082   0.912   0.650
 3335SOL    HW2 9825   5.003   1.042   0.591
 3336SOL     OW 9826   4.484   1.268   1.423
 3336SOL    HW1 9827   4.459   1.326   1.501
 3336SOL    HW2 9828   4.408   1.265   1.358
 3337SOL     OW 9829   4.371   1.621   0.167
 3337SOL    HW1 9830   4.443   1.632   0.097
 3337SOL    HW2 9831   4.340   1.526   0.167
 3338SOL     OW 9832   3.968   0.289   0.716
 3338SOL    HW1 9833   3.887   0.341   0.686
 3338SOL    HW2 9834   3.976   0.294   0.815
 3339SOL     OW 9835   4.852   1.598   5.064
 3339SOL    HW1 9836   4.932   1.569   0.030
 3339SOL    HW2 9837   4.880   1.624   4.972
 3340SOL     OW 9838   4.560   1.015   1.378
 3340SOL    HW1 9839   4.609   1.018   1.290
 3340SOL    HW2 9840   4.542   1.109   1.409
 3341SOL     OW 9841   4.658   0.929   0.300
 3341SOL    HW1 9842   4.722   0.945   0.224
 3341SOL    HW2 9843   4.685   0.846   0.349
 3342SOL     OW 9844   4.061   1.275   1.475
 3342SOL    HW1 9845   4.065   1.345   1.404
 3342SOL    HW2 9846   3.983   1.215   1.458
 3343SOL     OW 9847   4.790   1.123   0.731
 3343SOL    HW1 9848   4.704   1.079   0.756
 3343SOL    HW2 9849   4.853   1.054   0.695
 3344SOL     OW 9850   4.775   0.208   0.964
 3344SOL    HW1 9851   4.762   0.162   0.876
 3344SOL    HW2 9852   4.777   0.139   1.036
 3345SOL     OW 9853   4.326   1.489   0.482
 3345SOL    HW1 9854   4.383   1.449   0.411
 3345SOL    HW2 9855   4.247   1.533   0.440
 3346SOL     OW 9856   3.984   1.356   0.287
 3346SOL    HW1 9857   3.902   1.386   0.237
 3346SOL    HW2 9858   3.981   1.393   0.380
 3347SOL     OW 9859   3.846   1.016   1.702
 3347SOL    HW1 9860   3.774   1.006   1.770
 3347SOL    HW2 9861   3.931   0.978   1.737
 3348SOL     OW 9862   4.393   0.221   1.483
 3348SOL    HW1 9863   4.486   0.202   1.454
 3348SOL    HW2 9864   4.393   0.249   1.579
 3349SOL     OW 9865   0.050   0.836   1.396
 3349SOL    HW1 9866   5.051   0.885   1.381
 3349SOL    HW2 9867   0.121   0.872   1.336
 3350SOL     OW 9868   3.816   0.177   0.327
 3350SOL    HW1 9869   3.795   0.260   0.276
 3350SOL    HW2 9870   3.893   0.129   0.284
 3351SOL     OW 9871   4.340   0.822   1.430
 3351SOL    HW1 9872   4.378   0.914   1.442
 3351SOL    HW2 9873   4.413   0.754   1.437
 3352SOL     OW 9874   4.436   0.579   1.709
 3352SOL    HW1 9875   4.494   0.640   1.762
 3352SOL    HW2 9876   4.436   0.488   1.751
 3353SOL     OW 9877   4.096   1.722   1.549
 3353SOL    HW1 9878   4.012   1.775   1.533
 3353SOL    HW2 9879   4.072   1.634   1.590
 3354SOL     OW 9880   4.945   0.328   0.438
 3354SOL    HW1 9881   5.012   0.266   0.398
 3354SOL    HW2 9882   4.990   0.389   0.503
 3355SOL     OW 9883   4.278   0.755   0.664
 3355SOL    HW1 9884   4.341   0.831   0.651
 3355SOL    HW2 9885   4.224   0.742   0.582
 3356SOL     OW 9886   4.592   1.383   0.005
 3356SOL    HW1 9887   4.549   1.360   0.092
 3356SOL    HW2 9888   4.613   1.481   0.002
 3357SOL     OW 9889   4.389   1.793   0.935
 3357SOL    HW1 9890   4.372   1.887   0.905
 3357SOL    HW2 9891   4.486   1.772   0.928
 3358SOL     OW 9892   4.601   0.959   0.844
 3358SOL    HW1 9893   4.654   0.883   0.882
 3358SOL    HW2 9894   4.564   1.015   0.918
 3359SOL     OW 9895   4.804   0.976   0.082
 3359SOL    HW1 9896   4.832   1.062   0.041
 3359SOL    HW2 9897   4.879   0.911   0.080
 3360SOL     OW 9898   3.977   1.314   1.869
 3360SOL    HW1 9899   3.904   1.255   1.835
 3360SOL    HW2 9900   3.960   1.336   1.966
 3361SOL     OW 9901   3.820   1.268   0.663
 3361SOL    HW1 9902   3.833   1.215   0.748
 3361SOL    HW2 9903   3.878   1.230   0.591
 3362SOL     OW 9904   4.385   1.417   1.616
 3362SOL    HW1 9905   4.310   1.360   1.652
 3362SOL    HW2 9906   4.398   1.496   1.675
 3363SOL     OW 9907   4.154   0.416   0.506
 3363SOL    HW1 9908   4.185   0.348   0.440
 3363SOL    HW2 9909   4.130   0.371   0.592
 3364SOL     OW 9910   4.030   0.545   1.286
 3364SOL    HW1 9911   4.091   0.491   1.344
 3364SOL    HW2 9912   4.053   0.529   1.190
 3365SOL     OW 9913   4.547   1.598   0.664
 3365SOL    HW1 9914   4.549   1.620   0.566
 3365SOL    HW2 9915   4.463   1.550   0.686
 3366SOL     OW 9916   4.769   0.026   1.161
 3366SOL    HW1 9917   4.705   5.047   1.121
 3366SOL    HW2 9918   4.790   5.086   1.255
 3367SOL     OW 9919   4.500   1.361   0.307
 3367SOL    HW1 9920   4.444   1.278   0.310
 3367SOL    HW2 9921   4.588   1.344   0.351
 3368SOL     OW 9922   4.327   1.561   1.252
 3368SOL    HW1 9923   4.329   1.642   1.311
 3368SOL    HW2 9924   4.418   1.545   1.215
 3369SOL     OW 9925   3.762   1.111   0.307
 3369SOL    HW1 9926   3.856   1.118   0.272
 3369SOL    HW2 9927   3.748   1.020   0.345
 3370SOL     OW 9928   4.609   1.641   0.342
 3370SOL    HW1 9929   4.522   1.622   0.298
 3370SOL    HW2 9930   4.604   1.729   0.390
 3371SOL     OW 9931   3.940   0.645   2.001
 3371SOL    HW1 9932   3.844   0.633   2.026
 3371SOL    HW2 9933   3.951   0.631   1.902
 3372SOL     OW 9934   3.933   0.307   2.874
 3372SOL    HW1 9935   3.969   0.279   2.963
 3372SOL    HW2 9936   3.849   0.255   2.855
 3373SOL     OW 9937   3.731   0.388   2.497
 3373SOL    HW1 9938   3.646   0.415   2.543
 3373SOL    HW2 9939   3.710   0.326   2.422
 3374SOL     OW 9940   4.267   1.301   3.051
 3374SOL    HW1 9941   4.180   1.306   3.002
 3374SOL    HW2 9942   4.290   1.392   3.087
 3375SOL     OW 9943   4.833   0.722   2.559
 3375SOL    HW1 9944   4.879   0.806   2.531
 3375SOL    HW2 9945   4.807   0.729   2.656
 3376SOL     OW 9946   4.442   1.162   2.888
 3376SOL    HW1 9947   4.375   1.200   2.951
 3376SOL    HW2 9948   4.481   1.236   2.833
 3377SOL     OW 9949   4.594   0.756   3.679
 3377SOL    HW1 9950   4.576   0.822   3.752
 3377SOL    HW2 9951   4.611   0.804   3.594
 3378SOL     OW 9952   4.409   1.032   2.528
 3378SOL    HW1 9953   4.479   1.003   2.593
 3378SOL    HW2 9954   4.341   1.088   2.576
 3379SOL     OW 9955   4.423   1.165   3.655
 3379SOL    HW1 9956   4.471   1.248   3.685
 3379SOL    HW2 9957   4.329   1.188   3.630
 3380SOL     OW 9958   4.042   1.424   2.912
 3380SOL    HW1 9959   3.963   1.388   2.862
 3380SOL    HW2 9960   4.098   1.479   2.850
 3381SOL     OW 9961   4.142   0.392   3.385
 3381SOL    HW1 9962   4.228   0.347   3.364
 3381SOL    HW2 9963   4.066   0.328   3.370
 3382SOL     OW 9964   3.955   1.722   2.360
 3382SOL    HW1 9965   3.988   1.805   2.404
 3382SOL    HW2 9966   3.998   1.711   2.270
 3383SOL     OW 9967   4.822   1.354   3.561
 3383SOL    HW1 9968   4.860   1.340   3.652
 3383SOL    HW2 9969   4.769   1.274   3.534
 3384SOL     OW 9970   3.985   1.445   2.399
 3384SOL    HW1 9971   3.977   1.545   2.405
 3384SOL    HW2 9972   3.909   1.403   2.449
 3385SOL     OW 9973   3.990   1.106   2.774
 3385SOL    HW1 9974   3.995   1.019   2.822
 3385SOL    HW2 9975   3.931   1.169   2.826
 3386SOL     OW 9976   4.331   1.801   3.283
 3386SOL    HW1 9977   4.247   1.776   3.330
 3386SOL    HW2 9978   4.356   1.895   3.307
 3387SOL     OW 9979   4.327   0.997   1.978
 3387SOL    HW1 9980   4.370   1.058   1.911
 3387SOL    HW2 9981   4.355   1.025   2.070
 3388SOL     OW 9982   3.824   0.672   2.427
 3388SOL    HW1 9983   3.808   0.575   2.444
 3388SOL    HW2 9984   3.829   0.721   2.513
 3389SOL     OW 9985   3.768   1.598   1.987
 3389SOL    HW1 9986   3.766   1.500   2.005
 3389SOL    HW2 9987   3.728   1.647   2.064
 3390SOL     OW 9988   3.855   0.753   3.431
 3390SOL    HW1 9989   3.954   0.769   3.426
 3390SOL    HW2 9990   3.813   0.826   3.485
 3391SOL     OW 9991   4.332   1.405   2.614
 3391SOL    HW1 9992   4.285   1.319   2.632
 3391SOL    HW2 9993   4.331   1.424   2.516
 3392SOL     OW 9994   4.991   1.226   3.307
 3392SOL    HW1 9995   5.003   1.156   3.238
 3392SOL    HW2 9996   5.054   1.209   3.383
 3393SOL     OW 9997   4.589   0.028   2.394
 3393SOL    HW1 9998   4.602   0.122   2.362
 3393SOL    HW2 9999   4.492   0.006   2.392
 3394SOL     OW10000   3.898   0.969   3.111
 3394SOL    HW110001   3.989   0.932   3.091
 3394SOL    HW210002   3.829   0.909   3.070
 3395SOL     OW10003   4.937   1.799   3.446
 3395SOL    HW110004   4.898   1.878   3.399
 3395SOL    HW210005   4.909   1.715   3.398
 3396SOL     OW10006   4.037   0.242   3.645
 3396SOL    HW110007   4.084   0.329   3.651
 3396SOL    HW210008   3.943   0.253   3.676
 3397SOL     OW10009   4.319   0.738   2.105
 3397SOL    HW110010   4.334   0.822   2.053
 3397SOL    HW210011   4.251   0.755   2.177
 3398SOL     OW10012   5.052   0.292   2.845
 3398SOL    HW110013   4.960   0.291   2.808
 3398SOL    HW210014   5.049   0.312   2.943
 3399SOL     OW10015   4.532   0.613   3.318
 3399SOL    HW110016   4.505   0.592   3.412
 3399SOL    HW210017   4.480   0.556   3.255
 3400SOL     OW10018   4.677   0.869   3.443
 3400SOL    HW110019   4.738   0.797   3.411
 3400SOL    HW210020   4.636   0.916   3.365
 3401SOL     OW10021   4.734   0.410   3.071
 3401SOL    HW110022   4.649   0.446   3.109
 3401SOL    HW210023   4.714   0.354   2.991
 3402SOL     OW10024   4.754   0.688   2.282
 3402SOL    HW110025   4.777   0.695   2.379
 3402SOL    HW210026   4.666   0.641   2.272
 3403SOL     OW10027   3.839   0.840   2.654
 3403SOL    HW110028   3.918   0.820   2.712
 3403SOL    HW210029   3.795   0.924   2.684
 3404SOL     OW10030   3.830   1.841   3.429
 3404SOL    HW110031   3.847   1.818   3.524
 3404SOL    HW210032   3.733   1.827   3.408
 3405SOL     OW10033   4.601   0.345   2.082
 3405SOL    HW110034   4.667   0.390   2.022
 3405SOL    HW210035   4.558   0.269   2.034
 3406SOL     OW10036   4.248   0.210   2.759
 3406SOL    HW110037   4.265   0.232   2.855
 3406SOL    HW210038   4.234   0.295   2.708
 3407SOL     OW10039   4.691   1.443   2.337
 3407SOL    HW110040   4.662   1.515   2.274
 3407SOL    HW210041   4.712   1.483   2.426
 3408SOL     OW10042   4.074   1.817   2.718
 3408SOL    HW110043   4.116   1.727   2.732
 3408SOL    HW210044   4.137   1.889   2.745
 3409SOL     OW10045   4.926   1.546   3.334
 3409SOL    HW110046   4.935   1.495   3.420
 3409SOL    HW210047   4.876   1.490   3.268
 3410SOL     OW10048   4.031   0.948   2.117
 3410SOL    HW110049   4.112   0.977   2.067
 3410SOL    HW210050   4.005   0.855   2.088
 3411SOL     OW10051   4.179   1.264   3.586
 3411SOL    HW110052   4.147   1.266   3.491
 3411SOL    HW210053   4.102   1.283   3.648
 3412SOL     OW10054   4.871   1.763   2.103
 3412SOL    HW110055   4.799   1.730   2.163
 3412SOL    HW210056   4.860   1.723   2.012
 3413SOL     OW10057   3.893   0.290   3.348
 3413SOL    HW110058   3.835   0.372   3.346
 3413SOL    HW210059   3.845   0.216   3.396
 3414SOL     OW10060   4.187   1.732   2.163
 3414SOL    HW110061   4.240   1.782   2.232
 3414SOL    HW210062   4.249   1.678   2.107
 3415SOL     OW10063   3.970   1.782   3.077
 3415SOL    HW110064   4.032   1.716   3.118
 3415SOL    HW210065   3.939   1.748   2.988
 3416SOL     OW10066   4.697   1.698   2.747
 3416SOL    HW110067   4.785   1.654   2.765
 3416SOL    HW210068   4.647   1.647   2.678
 3417SOL     OW10069   4.089   0.692   2.325
 3417SOL    HW110070   4.123   0.599   2.335
 3417SOL    HW210071   3.990   0.693   2.343
 3418SOL     OW10072   4.372   0.144   1.944
 3418SOL    HW110073   4.421   0.083   2.007
 3418SOL    HW210074   4.313   0.089   1.885
 3419SOL     OW10075   4.469   0.293   3.617
 3419SOL    HW110076   4.559   0.253   3.601
 3419SOL    HW210077   4.426   0.247   3.695
 3420SOL     OW10078   4.607   1.529   3.044
 3420SOL    HW110079   4.596   1.502   2.948
 3420SOL    HW210080   4.669   1.465   3.089
 3421SOL     OW10081   4.540   1.412   2.787
 3421SOL    HW110082   4.628   1.388   2.746
 3421SOL    HW210083   4.469   1.414   2.716
 3422SOL     OW10084   4.668   0.479   2.763
 3422SOL    HW110085   4.640   0.489   2.668
 3422SOL    HW210086   4.690   0.384   2.782
 3423SOL     OW10087   4.305   0.054   2.347
 3423SOL    HW110088   4.224   0.043   2.404
 3423SOL    HW210089   4.294   0.135   2.290
 3424SOL     OW10090   4.019   0.056   2.105
 3424SOL    HW110091   4.033   0.124   2.033
 3424SOL    HW210092   4.076   5.063   2.087
 3425SOL     OW10093   4.679   0.281   2.340
 3425SOL    HW110094   4.639   0.313   2.254
 3425SOL    HW210095   4.779   0.281   2.333
 3426SOL     OW10096   4.804   0.654   3.330
 3426SOL    HW110097   4.707   0.632   3.330
 3426SOL    HW210098   4.857   0.576   3.362
 3427SOL     OW10099   4.966   1.567   2.649
 3427SOL    HW110100   4.984   1.626   2.570
 3427SOL    HW210101   5.053   1.535   2.686
 3428SOL     OW10102   4.194   1.179   2.613
 3428SOL    HW110103   4.120   1.152   2.674
 3428SOL    HW210104   4.168   1.157   2.518
 3429SOL     OW10105   5.028   1.828   2.452
 3429SOL    HW110106   5.075   1.888   2.387
 3429SOL    HW210107   4.955   1.879   2.497
 3430SOL     OW10108   4.760   0.518   1.907
 3430SOL    HW110109   4.712   0.604   1.887
 3430SOL    HW210110   4.831   0.534   1.975
 3431SOL     OW10111   3.772   0.552   3.267
 3431SOL    HW110112   3.866   0.541   3.235
 3431SOL    HW210113   3.766   0.634   3.324
 3432SOL     OW10114   4.276   0.262   3.040
 3432SOL    HW110115   4.324   0.209   3.110
 3432SOL    HW210116   4.177   0.257   3.056
 3433SOL     OW10117   4.601   0.480   2.503
 3433SOL    HW110118   4.539   0.534   2.446
 3433SOL    HW210119   4.634   0.401   2.452
 3434SOL     OW10120   4.745   0.034   2.611
 3434SOL    HW110121   4.687   0.043   2.530
 3434SOL    HW210122   4.760   5.024   2.630
 3435SOL     OW10123   4.226   1.383   2.055
 3435SOL    HW110124   4.131   1.386   2.085
 3435SOL    HW210125   4.231   1.342   1.964
 3436SOL     OW10126   0.309   1.344   2.646
 3436SOL    HW110127   0.368   1.265   2.634
 3436SOL    HW210128   0.296   1.390   2.558
 3437SOL     OW10129   4.273   0.265   2.181
 3437SOL    HW110130   4.292   0.205   2.104
 3437SOL    HW210131   4.233   0.350   2.149
 3438SOL     OW10132   4.780   1.338   3.183
 3438SOL    HW110133   4.696   1.315   3.232
 3438SOL    HW210134   4.858   1.300   3.232
 3439SOL     OW10135   4.845   1.223   2.942
 3439SOL    HW110136   4.813   1.274   3.022
 3439SOL    HW210137   4.811   1.266   2.859
 3440SOL     OW10138   4.639   0.155   3.265
 3440SOL    HW110139   4.637   0.165   3.166
 3440SOL    HW210140   4.733   0.162   3.298
 3441SOL     OW10141   4.681   1.110   3.574
 3441SOL    HW110142   4.590   1.132   3.607
 3441SOL    HW210143   4.679   1.022   3.525
 3442SOL     OW10144   4.433   1.044   2.232
 3442SOL    HW110145   4.419   1.050   2.331
 3442SOL    HW210146   4.512   0.986   2.213
 3443SOL     OW10147   4.137   0.797   3.117
 3443SOL    HW110148   4.210   0.799   3.184
 3443SOL    HW210149   4.083   0.714   3.128
 3444SOL     OW10150   5.004   0.365   3.110
 3444SOL    HW110151   5.049   0.440   3.159
 3444SOL    HW210152   4.910   0.391   3.089
 3445SOL     OW10153   3.805   1.560   3.205
 3445SOL    HW110154   3.794   1.658   3.189
 3445SOL    HW210155   3.901   1.535   3.195
 3446SOL     OW10156   4.121   1.115   2.361
 3446SOL    HW110157   4.145   1.183   2.292
 3446SOL    HW210158   4.103   1.027   2.317
 3447SOL     OW10159   4.263   0.541   2.700
 3447SOL    HW110160   4.281   0.602   2.623
 3447SOL    HW210161   4.331   0.556   2.772
 3448SOL     OW10162   4.951   1.364   2.247
 3448SOL    HW110163   4.989   1.449   2.283
 3448SOL    HW210164   4.858   1.352   2.283
 3449SOL     OW10165   4.066   1.501   3.158
 3449SOL    HW110166   4.048   1.470   3.064
 3449SOL    HW210167   4.163   1.522   3.168
 3450SOL     OW10168   4.147   0.725   3.456
 3450SOL    HW110169   4.217   0.772   3.403
 3450SOL    HW210170   4.174   0.631   3.474
 3451SOL     OW10171   4.718   0.155   3.582
 3451SOL    HW110172   4.794   0.200   3.536
 3451SOL    HW210173   4.733   0.056   3.583
 3452SOL     OW10174   4.201   0.014   3.640
 3452SOL    HW110175   4.184   5.046   3.558
 3452SOL    HW210176   4.139   0.092   3.641
 3453SOL     OW10177   4.314   0.870   2.919
 3453SOL    HW110178   4.337   0.968   2.914
 3453SOL    HW210179   4.250   0.854   2.994
 3454SOL     OW10180   5.066   0.862   2.909
 3454SOL    HW110181   4.984   0.845   2.854
 3454SOL    HW210182   0.017   0.774   2.940
 3455SOL     OW10183   4.926   0.530   2.126
 3455SOL    HW110184   4.951   0.453   2.185
 3455SOL    HW210185   4.868   0.593   2.178
 3456SOL     OW10186   4.023   0.212   3.114
 3456SOL    HW110187   3.970   0.235   3.196
 3456SOL    HW210188   4.014   0.114   3.096
 3457SOL     OW10189   3.776   1.290   3.154
 3457SOL    HW110190   3.804   1.228   3.227
 3457SOL    HW210191   3.775   1.384   3.188
 3458SOL     OW10192   4.434   0.610   2.892
 3458SOL    HW110193   4.526   0.599   2.855
 3458SOL    HW210194   4.406   0.706   2.883
 3459SOL     OW10195   4.056   0.046   2.463
 3459SOL    HW110196   4.018   0.137   2.480
 3459SOL    HW210197   4.081   0.004   2.550
 3460SOL     OW10198   0.180   0.433   2.229
 3460SOL    HW110199   0.235   0.350   2.220
 3460SOL    HW210200   0.225   0.495   2.294
 3461SOL     OW10201   4.764   0.739   2.816
 3461SOL    HW110202   4.755   0.760   2.913
 3461SOL    HW210203   4.747   0.642   2.801
 3462SOL     OW10204   4.674   1.575   3.544
 3462SOL    HW110205   4.676   1.621   3.455
 3462SOL    HW210206   4.719   1.486   3.536
 3463SOL     OW10207   4.075   0.906   3.648
 3463SOL    HW110208   4.154   0.939   3.699
 3463SOL    HW210209   4.103   0.831   3.587
 3464SOL     OW10210   5.048   0.839   1.860
 3464SOL    HW110211   5.057   0.784   1.943
 3464SOL    HW210212   0.013   0.796   1.786
 3465SOL     OW10213   4.791   1.357   2.702
 3465SOL    HW110214   4.800   1.277   2.643
 3465SOL    HW210215   4.861   1.425   2.678
 3466SOL     OW10216   4.048   0.814   2.835
 3466SOL    HW110217   4.143   0.841   2.823
 3466SOL    HW210218   4.043   0.717   2.861
 3467SOL     OW10219   4.053   0.541   2.866
 3467SOL    HW110220   4.003   0.455   2.862
 3467SOL    HW210221   4.122   0.544   2.794
 3468SOL     OW10222   4.860   0.401   3.524
 3468SOL    HW110223   4.793   0.434   3.591
 3468SOL    HW210224   4.949   0.393   3.568
 3469SOL     OW10225   4.900   0.214   3.324
 3469SOL    HW110226   4.883   0.291   3.384
 3469SOL    HW210227   4.949   0.245   3.242
 3470SOL     OW10228   3.724   1.323   2.061
 3470SOL    HW110229   3.633   1.347   2.030
 3470SOL    HW210230   3.725   1.228   2.092
 3471SOL     OW10231   3.821   1.781   2.814
 3471SOL    HW110232   3.787   1.699   2.770
 3471SOL    HW210233   3.911   1.805   2.775
 3472SOL     OW10234   4.219   1.586   2.784
 3472SOL    HW110235   4.287   1.654   2.810
 3472SOL    HW210236   4.260   1.519   2.722
 3473SOL     OW10237   4.714   0.756   3.082
 3473SOL    HW110238   4.778   0.733   3.155
 3473SOL    HW210239   4.621   0.738   3.112
 3474SOL     OW10240   3.741   0.530   2.974
 3474SOL    HW110241   3.814   0.508   2.908
 3474SOL    HW210242   3.780   0.539   3.065
 3475SOL     OW10243   3.949   0.522   3.570
 3475SOL    HW110244   4.002   0.463   3.510
 3475SOL    HW210245   3.917   0.602   3.518
 3476SOL     OW10246   4.519   0.574   2.223
 3476SOL    HW110247   4.530   0.489   2.171
 3476SOL    HW210248   4.458   0.636   2.173
 3477SOL     OW10249   3.977   1.541   3.585
 3477SOL    HW110250   3.963   1.617   3.648
 3477SOL    HW210251   3.978   1.455   3.636
 3478SOL     OW10252   4.409   0.479   3.126
 3478SOL    HW110253   4.362   0.395   3.103
 3478SOL    HW210254   4.405   0.542   3.048
 3479SOL     OW10255   4.651   1.714   3.324
 3479SOL    HW110256   4.621   1.680   3.235
 3479SOL    HW210257   4.639   1.813   3.327
 3480SOL     OW10258   4.173   0.498   2.073
 3480SOL    HW110259   4.239   0.573   2.072
 3480SOL    HW210260   4.081   0.535   2.065
 3481SOL     OW10261   3.849   1.108   3.336
 3481SOL    HW110262   3.858   1.060   3.423
 3481SOL    HW210263   3.865   1.045   3.260
 3482SOL     OW10264   4.984   1.044   3.099
 3482SOL    HW110265   5.024   0.980   3.033
 3482SOL    HW210266   4.928   1.111   3.051
 3483SOL     OW10267   4.980   1.714   2.985
 3483SOL    HW110268   5.047   1.761   2.927
 3483SOL    HW210269   5.028   1.653   3.048
 3484SOL     OW10270   3.812   1.272   2.889
 3484SOL    HW110271   3.795   1.278   2.987
 3484SOL    HW210272   3.741   1.215   2.846
 3485SOL     OW10273   4.429   1.660   3.631
 3485SOL    HW110274   4.374   1.728   3.583
 3485SOL    HW210275   4.520   1.655   3.589
 3486SOL     OW10276   5.056   1.596   2.319
 3486SOL    HW110277   0.060   1.606   2.279
 3486SOL    HW210278   5.027   1.683   2.359
 3487SOL     OW10279   3.886   1.784   3.689
 3487SOL    HW110280   3.828   1.720   3.739
 3487SOL    HW210281   3.939   1.839   3.754
 3488SOL     OW10282   4.991   0.946   2.495
 3488SOL    HW110283   5.074   0.905   2.533
 3488SOL    HW210284   5.015   1.030   2.446
 3489SOL     OW10285   4.486   1.267   3.286
 3489SOL    HW110286   4.462   1.326   3.363
 3489SOL    HW210287   4.410   1.265   3.221
 3490SOL     OW10288   4.395   1.596   2.023
 3490SOL    HW110289   4.406   1.614   1.925
 3490SOL    HW210290   4.349   1.509   2.036
 3491SOL     OW10291   3.967   0.285   2.568
 3491SOL    HW110292   3.883   0.327   2.534
 3491SOL    HW210293   3.969   0.293   2.668
 3492SOL     OW10294   4.872   1.630   1.874
 3492SOL    HW110295   4.933   1.551   1.875
 3492SOL    HW210296   4.815   1.628   1.792
 3493SOL     OW10297   4.569   1.015   3.249
 3493SOL    HW110298   4.628   1.018   3.169
 3493SOL    HW210299   4.544   1.108   3.276
 3494SOL     OW10300   4.670   0.920   2.158
 3494SOL    HW110301   4.736   0.964   2.096
 3494SOL    HW210302   4.711   0.836   2.194
 3495SOL     OW10303   4.071   1.273   3.343
 3495SOL    HW110304   4.068   1.336   3.266
 3495SOL    HW210305   3.994   1.210   3.338
 3496SOL     OW10306   4.786   1.116   2.581
 3496SOL    HW110307   4.705   1.073   2.620
 3496SOL    HW210308   4.850   1.046   2.550
 3497SOL     OW10309   4.759   0.215   2.835
 3497SOL    HW110310   4.747   0.173   2.745
 3497SOL    HW210311   4.772   0.144   2.903
 3498SOL     OW10312   4.353   1.477   2.358
 3498SOL    HW110313   4.402   1.422   2.290
 3498SOL    HW210314   4.272   1.518   2.315
 3499SOL     OW10315   3.966   1.390   2.139
 3499SOL    HW110316   3.870   1.364   2.123
 3499SOL    HW210317   3.980   1.411   2.236
 3500SOL     OW10318   3.848   1.012   3.576
 3500SOL    HW110319   3.775   0.999   3.643
 3500SOL    HW210320   3.934   0.974   3.611
 3501SOL     OW10321   4.390   0.222   3.350
 3501SOL    HW110322   4.481   0.200   3.315
 3501SOL    HW210323   4.397   0.252   3.445
 3502SOL     OW10324   3.799   0.357   1.878
 3502SOL    HW110325   3.700   0.374   1.868
 3502SOL    HW210326   3.850   0.425   1.825
 3503SOL     OW10327   0.042   0.838   3.258
 3503SOL    HW110328   5.047   0.890   3.235
 3503SOL    HW210329   0.120   0.874   3.205
 3504SOL     OW10330   3.796   0.200   2.210
 3504SOL    HW110331   3.800   0.265   2.134
 3504SOL    HW210332   3.850   0.119   2.187
 3505SOL     OW10333   4.342   0.820   3.291
 3505SOL    HW110334   4.376   0.914   3.302
 3505SOL    HW210335   4.418   0.756   3.297
 3506SOL     OW10336   4.453   0.564   3.559
 3506SOL    HW110337   4.501   0.628   3.620
 3506SOL    HW210338   4.452   0.473   3.601
 3507SOL     OW10339   4.088   1.728   3.417
 3507SOL    HW110340   4.005   1.781   3.403
 3507SOL    HW210341   4.066   1.641   3.461
 3508SOL     OW10342   4.948   0.302   2.311
 3508SOL    HW110343   5.009   0.248   2.253
 3508SOL    HW210344   5.003   0.364   2.367
 3509SOL     OW10345   4.297   0.748   2.524
 3509SOL    HW110346   4.343   0.836   2.511
 3509SOL    HW210347   4.214   0.746   2.467
 3510SOL     OW10348   4.576   1.378   1.873
 3510SOL    HW110349   4.572   1.384   1.973
 3510SOL    HW210350   4.606   1.465   1.836
 3511SOL     OW10351   4.394   1.795   2.804
 3511SOL    HW110352   4.378   1.892   2.784
 3511SOL    HW210353   4.493   1.777   2.803
 3512SOL     OW10354   4.606   0.961   2.716
 3512SOL    HW110355   4.655   0.879   2.746
 3512SOL    HW210356   4.570   1.010   2.795
 3513SOL     OW10357   4.828   0.997   1.939
 3513SOL    HW110358   4.778   1.044   1.867
 3513SOL    HW210359   4.903   0.944   1.899
 3514SOL     OW10360   3.964   1.317   3.726
 3514SOL    HW110361   3.895   1.257   3.685
 3514SOL    HW210362   3.943   1.329   3.823
 3515SOL     OW10363   3.821   1.236   2.506
 3515SOL    HW110364   3.820   1.196   2.598
 3515SOL    HW210365   3.902   1.204   2.456
 3516SOL     OW10366   4.386   1.414   3.480
 3516SOL    HW110367   4.319   1.349   3.517
 3516SOL    HW210368   4.394   1.492   3.542
 3517SOL     OW10369   4.163   0.421   2.395
 3517SOL    HW110370   4.212   0.359   2.333
 3517SOL    HW210371   4.116   0.368   2.465
 3518SOL     OW10372   4.027   0.535   3.147
 3518SOL    HW110373   4.092   0.485   3.205
 3518SOL    HW210374   4.053   0.526   3.051
 3519SOL     OW10375   4.547   1.595   2.538
 3519SOL    HW110376   4.550   1.612   2.440
 3519SOL    HW210377   4.461   1.549   2.561
 3520SOL     OW10378   4.773   0.016   3.012
 3520SOL    HW110379   4.704   5.043   2.970
 3520SOL    HW210380   4.785   5.078   3.108
 3521SOL     OW10381   4.515   1.310   2.174
 3521SOL    HW110382   4.486   1.216   2.189
 3521SOL    HW210383   4.587   1.334   2.239
 3522SOL     OW10384   4.332   1.556   3.137
 3522SOL    HW110385   4.329   1.639   3.193
 3522SOL    HW210386   4.424   1.542   3.102
 3523SOL     OW10387   3.779   1.064   2.164
 3523SOL    HW110388   3.877   1.054   2.145
 3523SOL    HW210389   3.739   0.973   2.179
 3524SOL     OW10390   4.596   1.651   2.194
 3524SOL    HW110391   4.520   1.629   2.133
 3524SOL    HW210392   4.578   1.738   2.240
 3525SOL     OW10393   3.942   0.645   3.860
 3525SOL    HW110394   3.846   0.633   3.886
 3525SOL    HW210395   3.951   0.635   3.761
 3526SOL     OW10396   3.924   0.314   4.730
 3526SOL    HW110397   3.966   0.285   4.816
 3526SOL    HW210398   3.839   0.263   4.716
 3527SOL     OW10399   3.728   0.419   4.357
 3527SOL    HW110400   3.636   0.437   4.390
 3527SOL    HW210401   3.729   0.331   4.309
 3528SOL     OW10402   4.282   1.227   4.869
 3528SOL    HW110403   4.186   1.252   4.857
 3528SOL    HW210404   4.328   1.297   4.923
 3529SOL     OW10405   4.836   0.736   4.422
 3529SOL    HW110406   4.884   0.815   4.384
 3529SOL    HW210407   4.816   0.752   4.518
 3530SOL     OW10408   4.465   1.126   4.704
 3530SOL    HW110409   4.394   1.148   4.771
 3530SOL    HW210410   4.508   1.211   4.673
 3531SOL     OW10411   4.396   1.011   4.382
 3531SOL    HW110412   4.475   0.991   4.440
 3531SOL    HW210413   4.335   1.076   4.429
 3532SOL     OW10414   4.039   1.451   4.804
 3532SOL    HW110415   3.967   1.394   4.766
 3532SOL    HW210416   4.094   1.490   4.730
 3533SOL     OW10417   3.963   1.721   4.231
 3533SOL    HW110418   3.983   1.803   4.284
 3533SOL    HW210419   4.025   1.715   4.153
 3534SOL     OW10420   3.987   1.435   4.269
 3534SOL    HW110421   3.977   1.534   4.275
 3534SOL    HW210422   3.916   1.391   4.323
 3535SOL     OW10423   3.999   1.098   4.636
 3535SOL    HW110424   4.012   1.009   4.679
 3535SOL    HW210425   3.936   1.153   4.691
 3536SOL     OW10426   4.345   1.910   0.104
 3536SOL    HW110427   4.330   1.813   0.125
 3536SOL    HW210428   4.443   1.930   0.108
 3537SOL     OW10429   4.311   0.998   3.838
 3537SOL    HW110430   4.358   1.053   3.769
 3537SOL    HW210431   4.343   1.024   3.929
 3538SOL     OW10432   3.826   0.672   4.288
 3538SOL    HW110433   3.800   0.580   4.315
 3538SOL    HW210434   3.840   0.728   4.370
 3539SOL     OW10435   3.771   1.602   3.845
 3539SOL    HW110436   3.766   1.504   3.859
 3539SOL    HW210437   3.751   1.649   3.931
 3540SOL     OW10438   4.331   1.407   4.461
 3540SOL    HW110439   4.284   1.320   4.476
 3540SOL    HW210440   4.330   1.430   4.364
 3541SOL     OW10441   4.590   0.030   4.284
 3541SOL    HW110442   4.602   0.124   4.252
 3541SOL    HW210443   4.498   5.085   4.261
 3542SOL     OW10444   3.950   1.016   4.969
 3542SOL    HW110445   4.032   0.964   4.947
 3542SOL    HW210446   3.872   0.953   4.973
 3543SOL     OW10447   4.312   0.736   3.984
 3543SOL    HW110448   4.335   0.814   3.926
 3543SOL    HW210449   4.242   0.762   4.050
 3544SOL     OW10450   5.041   0.322   4.695
 3544SOL    HW110451   4.942   0.310   4.692
 3544SOL    HW210452   5.064   0.388   4.766
 3545SOL     OW10453   4.741   0.331   4.994
 3545SOL    HW110454   4.713   0.422   5.023
 3545SOL    HW210455   4.724   0.320   4.896
 3546SOL     OW10456   4.761   0.690   4.151
 3546SOL    HW110457   4.770   0.695   4.251
 3546SOL    HW210458   4.678   0.640   4.128
 3547SOL     OW10459   3.846   0.859   4.498
 3547SOL    HW110460   3.929   0.836   4.550
 3547SOL    HW210461   3.811   0.947   4.530
 3548SOL     OW10462   4.598   0.335   3.943
 3548SOL    HW110463   4.658   0.392   3.887
 3548SOL    HW210464   4.549   0.271   3.884
 3549SOL     OW10465   4.256   0.232   4.623
 3549SOL    HW110466   4.292   0.287   4.699
 3549SOL    HW210467   4.231   0.292   4.548
 3550SOL     OW10468   4.696   1.461   4.197
 3550SOL    HW110469   4.664   1.532   4.134
 3550SOL    HW210470   4.743   1.505   4.274
 3551SOL     OW10471   4.079   1.812   4.590
 3551SOL    HW110472   4.117   1.720   4.603
 3551SOL    HW210473   4.142   1.879   4.628
 3552SOL     OW10474   4.037   0.940   3.955
 3552SOL    HW110475   4.112   0.972   3.898
 3552SOL    HW210476   4.012   0.846   3.930
 3553SOL     OW10477   4.875   1.765   3.964
 3553SOL    HW110478   4.797   1.741   4.022
 3553SOL    HW210479   4.863   1.726   3.873
 3554SOL     OW10480   4.179   1.723   4.053
 3554SOL    HW110481   4.227   1.787   4.113
 3554SOL    HW210482   4.245   1.676   3.994
 3555SOL     OW10483   3.992   1.789   4.929
 3555SOL    HW110484   4.027   1.722   4.995
 3555SOL    HW210485   3.943   1.741   4.856
 3556SOL     OW10486   4.689   1.702   4.631
 3556SOL    HW110487   4.760   1.637   4.656
 3556SOL    HW210488   4.635   1.664   4.556
 3557SOL     OW10489   4.088   0.694   4.196
 3557SOL    HW110490   4.126   0.602   4.195
 3557SOL    HW210491   3.990   0.689   4.215
 3558SOL     OW10492   4.365   0.143   3.808
 3558SOL    HW110493   4.414   0.084   3.872
 3558SOL    HW210494   4.307   0.087   3.749
 3559SOL     OW10495   4.539   1.385   4.640
 3559SOL    HW110496   4.631   1.374   4.603
 3559SOL    HW210497   4.474   1.395   4.565
 3560SOL     OW10498   4.650   0.504   4.619
 3560SOL    HW110499   4.628   0.504   4.522
 3560SOL    HW210500   4.667   0.411   4.650
 3561SOL     OW10501   4.303   0.049   4.201
 3561SOL    HW110502   4.217   0.044   4.252
 3561SOL    HW210503   4.302   0.129   4.141
 3562SOL     OW10504   4.033   0.058   3.971
 3562SOL    HW110505   4.045   0.133   3.905
 3562SOL    HW210506   4.068   5.060   3.931
 3563SOL     OW10507   4.684   0.274   4.200
 3563SOL    HW110508   4.646   0.300   4.111
 3563SOL    HW210509   4.784   0.281   4.197
 3564SOL     OW10510   4.975   1.581   4.516
 3564SOL    HW110511   4.990   1.634   4.433
 3564SOL    HW210512   5.063   1.557   4.557
 3565SOL     OW10513   4.197   1.171   4.464
 3565SOL    HW110514   4.125   1.146   4.528
 3565SOL    HW210515   4.169   1.149   4.371
 3566SOL     OW10516   5.045   1.828   4.321
 3566SOL    HW110517   0.007   1.891   4.260
 3566SOL    HW210518   4.973   1.878   4.369
 3567SOL     OW10519   4.759   0.520   3.752
 3567SOL    HW110520   4.706   0.602   3.729
 3567SOL    HW210521   4.823   0.542   3.826
 3568SOL     OW10522   4.310   0.230   4.916
 3568SOL    HW110523   4.322   0.170   4.837
 3568SOL    HW210524   4.213   0.255   4.925
 3569SOL     OW10525   4.599   0.477   4.357
 3569SOL    HW110526   4.533   0.528   4.302
 3569SOL    HW210527   4.632   0.398   4.305
 3570SOL     OW10528   4.735   0.014   4.510
 3570SOL    HW110529   4.682   0.030   4.426
 3570SOL    HW210530   4.766   5.006   4.512
 3571SOL     OW10531   4.222   1.384   3.888
 3571SOL    HW110532   4.132   1.395   3.930
 3571SOL    HW210533   4.211   1.344   3.797
 3572SOL     OW10534   0.344   1.349   4.494
 3572SOL    HW110535   0.371   1.253   4.487
 3572SOL    HW210536   0.312   1.380   4.405
 3573SOL     OW10537   4.284   0.270   4.040
 3573SOL    HW110538   4.294   0.209   3.962
 3573SOL    HW210539   4.236   0.353   4.012
 3574SOL     OW10540   0.230   1.590   0.275
 3574SOL    HW110541   0.203   1.665   0.214
 3574SOL    HW210542   0.329   1.590   0.286
 3575SOL     OW10543   4.826   1.240   4.827
 3575SOL    HW110544   4.770   1.287   4.896
 3575SOL    HW210545   4.806   1.278   4.736
 3576SOL     OW10546   4.438   1.049   4.077
 3576SOL    HW110547   4.420   1.048   4.175
 3576SOL    HW210548   4.520   0.995   4.057
 3577SOL     OW10549   4.190   0.823   4.995
 3577SOL    HW110550   4.229   0.872   5.073
 3577SOL    HW210551   4.148   0.738   5.027
 3578SOL     OW10552   4.110   1.120   4.216
 3578SOL    HW110553   4.121   1.195   4.151
 3578SOL    HW210554   4.100   1.034   4.168
 3579SOL     OW10555   4.275   0.531   4.599
 3579SOL    HW110556   4.300   0.580   4.516
 3579SOL    HW210557   4.334   0.560   4.674
 3580SOL     OW10558   4.966   1.363   4.124
 3580SOL    HW110559   5.002   1.449   4.160
 3580SOL    HW210560   4.871   1.351   4.152
 3581SOL     OW10561   4.123   1.541   5.039
 3581SOL    HW110562   4.087   1.499   4.956
 3581SOL    HW210563   4.208   1.591   5.017
 3582SOL     OW10564   4.340   0.867   4.759
 3582SOL    HW110565   4.360   0.963   4.741
 3582SOL    HW210566   4.284   0.859   4.842
 3583SOL     OW10567   5.083   0.845   4.807
 3583SOL    HW110568   4.996   0.846   4.757
 3583SOL    HW210569   0.022   0.751   4.827
 3584SOL     OW10570   4.925   0.532   3.994
 3584SOL    HW110571   4.942   0.450   4.050
 3584SOL    HW210572   4.874   0.599   4.048
 3585SOL     OW10573   4.044   0.229   4.967
 3585SOL    HW110574   4.012   0.210   5.060
 3585SOL    HW210575   4.046   0.143   4.915
 3586SOL     OW10576   3.774   1.279   5.012
 3586SOL    HW110577   3.838   1.214   5.053
 3586SOL    HW210578   3.771   1.362   5.068
 3587SOL     OW10579   4.456   0.620   4.776
 3587SOL    HW110580   4.535   0.590   4.723
 3587SOL    HW210581   4.431   0.713   4.750
 3588SOL     OW10582   4.053   0.056   4.322
 3588SOL    HW110583   4.014   0.144   4.350
 3588SOL    HW210584   4.069   5.087   4.404
 3589SOL     OW10585   0.184   0.417   4.109
 3589SOL    HW110586   0.238   0.333   4.112
 3589SOL    HW210587   0.228   0.488   4.164
 3590SOL     OW10588   4.758   0.747   4.704
 3590SOL    HW110589   4.740   0.758   4.802
 3590SOL    HW210590   4.730   0.656   4.675
 3591SOL     OW10591   5.051   0.837   3.723
 3591SOL    HW110592   5.064   0.785   3.808
 3591SOL    HW210593   0.010   0.790   3.648
 3592SOL     OW10594   4.801   1.349   4.562
 3592SOL    HW110595   4.804   1.272   4.499
 3592SOL    HW210596   4.859   1.423   4.527
 3593SOL     OW10597   4.056   0.816   4.683
 3593SOL    HW110598   4.155   0.821   4.675
 3593SOL    HW210599   4.029   0.727   4.719
 3594SOL     OW10600   4.043   0.546   4.743
 3594SOL    HW110601   4.000   0.456   4.740
 3594SOL    HW210602   4.123   0.547   4.682
 3595SOL     OW10603   4.936   0.274   0.090
 3595SOL    HW110604   4.889   0.239   0.170
 3595SOL    HW210605   4.869   0.303   0.021
 3596SOL     OW10606   3.736   1.320   3.910
 3596SOL    HW110607   3.644   1.341   3.875
 3596SOL    HW210608   3.735   1.228   3.950
 3597SOL     OW10609   3.820   1.771   4.665
 3597SOL    HW110610   3.787   1.690   4.616
 3597SOL    HW210611   3.911   1.795   4.632
 3598SOL     OW10612   4.214   1.583   4.637
 3598SOL    HW110613   4.284   1.645   4.671
 3598SOL    HW210614   4.254   1.521   4.569
 3599SOL     OW10615   4.696   0.771   4.986
 3599SOL    HW110616   4.738   0.840   5.046
 3599SOL    HW210617   4.596   0.774   4.997
 3600SOL     OW10618   3.772   0.530   4.852
 3600SOL    HW110619   3.826   0.497   4.775
 3600SOL    HW210620   3.832   0.552   4.929
 3601SOL     OW10621   4.543   0.580   4.046
 3601SOL    HW110622   4.529   0.490   4.006
 3601SOL    HW210623   4.465   0.639   4.024
 3602SOL     OW10624   4.424   0.467   5.010
 3602SOL    HW110625   4.386   0.381   4.978
 3602SOL    HW210626   4.427   0.533   4.935
 3603SOL     OW10627   4.585   1.658   0.013
 3603SOL    HW110628   4.635   1.663   5.013
 3603SOL    HW210629   4.644   1.690   0.087
 3604SOL     OW10630   4.168   0.500   3.942
 3604SOL    HW110631   4.233   0.575   3.956
 3604SOL    HW210632   4.077   0.538   3.927
 3605SOL     OW10633   4.976   1.058   4.963
 3605SOL    HW110634   5.050   1.023   4.905
 3605SOL    HW210635   4.917   1.118   4.910
 3606SOL     OW10636   5.005   1.702   4.867
 3606SOL    HW110637   5.062   1.753   4.804
 3606SOL    HW210638   5.058   1.627   4.907
 3607SOL     OW10639   3.807   1.245   4.751
 3607SOL    HW110640   3.786   1.253   4.848
 3607SOL    HW210641   3.736   1.192   4.705
 3608SOL     OW10642   5.063   1.600   4.187
 3608SOL    HW110643   0.055   1.608   4.126
 3608SOL    HW210644   5.043   1.690   4.227
 3609SOL     OW10645   4.991   0.959   4.343
 3609SOL    HW110646   5.067   0.910   4.387
 3609SOL    HW210647   5.023   1.049   4.313
 3610SOL     OW10648   4.382   1.609   3.890
 3610SOL    HW110649   4.400   1.632   3.795
 3610SOL    HW210650   4.336   1.520   3.895
 3611SOL     OW10651   3.959   0.296   4.432
 3611SOL    HW110652   3.882   0.348   4.394
 3611SOL    HW210653   3.964   0.310   4.530
 3612SOL     OW10654   4.865   1.623   3.739
 3612SOL    HW110655   4.923   1.542   3.734
 3612SOL    HW210656   4.813   1.632   3.654
 3613SOL     OW10657   4.518   1.054   0.000
 3613SOL    HW110658   4.570   1.052   5.002
 3613SOL    HW210659   4.580   1.069   0.077
 3614SOL     OW10660   4.674   0.920   4.008
 3614SOL    HW110661   4.744   0.965   3.951
 3614SOL    HW210662   4.715   0.839   4.051
 3615SOL     OW10663   4.784   1.121   4.428
 3615SOL    HW110664   4.709   1.070   4.470
 3615SOL    HW210665   4.854   1.057   4.396
 3616SOL     OW10666   4.770   0.235   4.709
 3616SOL    HW110667   4.750   0.188   4.623
 3616SOL    HW210668   4.783   0.168   4.782
 3617SOL     OW10669   4.355   1.499   4.207
 3617SOL    HW110670   4.402   1.450   4.133
 3617SOL    HW210671   4.262   1.522   4.178
 3618SOL     OW10672   3.975   1.403   4.002
 3618SOL    HW110673   3.878   1.385   3.983
 3618SOL    HW210674   3.987   1.417   4.100
 3619SOL     OW10675   3.800   0.356   3.741
 3619SOL    HW110676   3.701   0.371   3.741
 3619SOL    HW210677   3.843   0.422   3.680
 3620SOL     OW10678   3.797   0.198   4.058
 3620SOL    HW110679   3.808   0.268   3.987
 3620SOL    HW210680   3.847   0.115   4.031
 3621SOL     OW10681   4.952   0.308   4.172
 3621SOL    HW110682   5.019   0.255   4.119
 3621SOL    HW210683   5.001   0.371   4.233
 3622SOL     OW10684   4.311   0.733   4.390
 3622SOL    HW110685   4.355   0.822   4.378
 3622SOL    HW210686   4.224   0.732   4.341
 3623SOL     OW10687   4.579   1.367   3.744
 3623SOL    HW110688   4.570   1.372   3.844
 3623SOL    HW210689   4.612   1.455   3.709
 3624SOL     OW10690   4.394   1.784   4.692
 3624SOL    HW110691   4.377   1.877   4.659
 3624SOL    HW210692   4.489   1.759   4.675
 3625SOL     OW10693   4.604   0.957   4.553
 3625SOL    HW110694   4.646   0.878   4.597
 3625SOL    HW210695   4.550   1.007   4.621
 3626SOL     OW10696   4.831   0.999   3.795
 3626SOL    HW110697   4.781   1.044   3.720
 3626SOL    HW210698   4.901   0.940   3.757
 3627SOL     OW10699   3.822   1.242   4.392
 3627SOL    HW110700   3.796   1.201   4.480
 3627SOL    HW210701   3.908   1.203   4.361
 3628SOL     OW10702   4.156   0.416   4.252
 3628SOL    HW110703   4.212   0.360   4.191
 3628SOL    HW210704   4.109   0.358   4.318
 3629SOL     OW10705   4.531   1.600   4.423
 3629SOL    HW110706   4.538   1.611   4.324
 3629SOL    HW210707   4.458   1.535   4.444
 3630SOL     OW10708   4.780   0.018   4.871
 3630SOL    HW110709   4.684   5.078   4.871
 3630SOL    HW210710   4.827   5.060   4.948
 3631SOL     OW10711   4.517   1.322   4.037
 3631SOL    HW110712   4.489   1.226   4.043
 3631SOL    HW210713   4.590   1.340   4.103
 3632SOL     OW10714   3.766   1.069   4.023
 3632SOL    HW110715   3.865   1.067   4.005
 3632SOL    HW210716   3.734   0.976   4.040
 3633SOL     OW10717   4.602   1.660   4.051
 3633SOL    HW110718   4.520   1.638   3.999
 3633SOL    HW210719   4.584   1.741   4.108
 3634SOL     OW10720   3.952   2.511   0.108
 3634SOL    HW110721   3.862   2.505   0.152
 3634SOL    HW210722   3.942   2.494   0.010
 3635SOL     OW10723   3.955   2.150   0.991
 3635SOL    HW110724   3.986   2.125   1.083
 3635SOL    HW210725   3.866   2.109   0.973
 3636SOL     OW10726   3.718   2.259   0.615
 3636SOL    HW110727   3.631   2.282   0.660
 3636SOL    HW210728   3.709   2.171   0.569
 3637SOL     OW10729   4.271   3.150   1.194
 3637SOL    HW110730   4.180   3.142   1.155
 3637SOL    HW210731   4.288   3.245   1.220
 3638SOL     OW10732   4.826   2.588   0.666
 3638SOL    HW110733   4.879   2.672   0.649
 3638SOL    HW210734   4.796   2.587   0.761
 3639SOL     OW10735   4.451   3.018   1.023
 3639SOL    HW110736   4.387   3.059   1.087
 3639SOL    HW210737   4.499   3.089   0.971
 3640SOL     OW10738   4.565   2.630   1.831
 3640SOL    HW110739   4.554   2.699   1.903
 3640SOL    HW210740   4.583   2.676   1.744
 3641SOL     OW10741   4.422   2.939   0.638
 3641SOL    HW110742   4.475   2.887   0.706
 3641SOL    HW210743   4.334   2.964   0.677
 3642SOL     OW10744   4.406   3.012   1.797
 3642SOL    HW110745   4.457   3.092   1.829
 3642SOL    HW210746   4.320   3.041   1.755
 3643SOL     OW10747   4.039   3.296   1.066
 3643SOL    HW110748   3.964   3.247   1.022
 3643SOL    HW210749   4.094   3.341   0.996
 3644SOL     OW10750   4.150   2.245   1.554
 3644SOL    HW110751   4.234   2.201   1.522
 3644SOL    HW210752   4.071   2.201   1.513
 3645SOL     OW10753   3.967   3.574   0.485
 3645SOL    HW110754   3.983   3.655   0.540
 3645SOL    HW210755   4.029   3.574   0.407
 3646SOL     OW10756   4.823   3.218   1.708
 3646SOL    HW110757   4.857   3.202   1.801
 3646SOL    HW210758   4.781   3.134   1.673
 3647SOL     OW10759   3.986   3.311   0.529
 3647SOL    HW110760   3.977   3.410   0.522
 3647SOL    HW210761   3.916   3.275   0.591
 3648SOL     OW10762   3.974   2.956   0.897
 3648SOL    HW110763   3.979   2.869   0.945
 3648SOL    HW210764   3.927   3.024   0.954
 3649SOL     OW10765   4.329   3.661   1.421
 3649SOL    HW110766   4.248   3.632   1.473
 3649SOL    HW210767   4.354   3.754   1.448
 3650SOL     OW10768   4.308   2.842   0.130
 3650SOL    HW110769   4.379   2.861   0.063
 3650SOL    HW210770   4.333   2.881   0.218
 3651SOL     OW10771   3.837   2.511   0.551
 3651SOL    HW110772   3.811   2.417   0.571
 3651SOL    HW210773   3.842   2.563   0.636
 3652SOL     OW10774   3.769   3.410   0.135
 3652SOL    HW110775   3.682   3.362   0.120
 3652SOL    HW210776   3.756   3.481   0.205
 3653SOL     OW10777   3.838   2.599   1.572
 3653SOL    HW110778   3.933   2.622   1.553
 3653SOL    HW210779   3.794   2.676   1.619
 3654SOL     OW10780   4.304   3.254   0.742
 3654SOL    HW110781   4.264   3.162   0.748
 3654SOL    HW210782   4.299   3.287   0.648
 3655SOL     OW10783   4.972   3.068   1.453
 3655SOL    HW110784   4.997   3.004   1.380
 3655SOL    HW210785   5.042   3.066   1.524
 3656SOL     OW10786   4.584   1.860   0.495
 3656SOL    HW110787   4.614   1.954   0.481
 3656SOL    HW210788   4.485   1.857   0.506
 3657SOL     OW10789   3.902   2.835   1.237
 3657SOL    HW110790   3.996   2.802   1.226
 3657SOL    HW210791   3.838   2.766   1.202
 3658SOL     OW10792   4.925   3.675   1.584
 3658SOL    HW110793   4.895   3.751   1.526
 3658SOL    HW210794   4.904   3.588   1.539
 3659SOL     OW10795   4.064   2.099   1.807
 3659SOL    HW110796   4.119   2.167   1.759
 3659SOL    HW210797   3.981   2.141   1.842
 3660SOL     OW10798   4.311   2.589   0.296
 3660SOL    HW110799   4.310   2.678   0.250
 3660SOL    HW210800   4.230   2.580   0.354
 3661SOL     OW10801   5.016   2.194   0.923
 3661SOL    HW110802   4.923   2.160   0.940
 3661SOL    HW210803   5.062   2.208   1.011
 3662SOL     OW10804   4.535   2.464   1.467
 3662SOL    HW110805   4.501   2.443   1.559
 3662SOL    HW210806   4.476   2.421   1.399
 3663SOL     OW10807   4.648   2.744   1.581
 3663SOL    HW110808   4.714   2.673   1.554
 3663SOL    HW210809   4.619   2.796   1.501
 3664SOL     OW10810   4.736   2.242   1.250
 3664SOL    HW110811   4.655   2.282   1.294
 3664SOL    HW210812   4.708   2.190   1.169
 3665SOL     OW10813   4.732   2.557   0.412
 3665SOL    HW110814   4.764   2.571   0.506
 3665SOL    HW210815   4.647   2.504   0.414
 3666SOL     OW10816   3.839   2.657   0.777
 3666SOL    HW110817   3.913   2.666   0.843
 3666SOL    HW210818   3.777   2.735   0.785
 3667SOL     OW10819   3.829   3.723   1.570
 3667SOL    HW110820   3.851   3.696   1.664
 3667SOL    HW210821   3.737   3.692   1.547
 3668SOL     OW10822   4.597   2.202   0.217
 3668SOL    HW110823   4.632   2.266   0.149
 3668SOL    HW210824   4.590   2.111   0.177
 3669SOL     OW10825   4.297   2.052   0.885
 3669SOL    HW110826   4.284   2.074   0.981
 3669SOL    HW210827   4.307   2.137   0.832
 3670SOL     OW10828   4.718   3.308   0.511
 3670SOL    HW110829   4.688   3.364   0.434
 3670SOL    HW210830   4.718   3.363   0.595
 3671SOL     OW10831   4.069   3.660   0.859
 3671SOL    HW110832   4.111   3.571   0.874
 3671SOL    HW210833   4.133   3.732   0.886
 3672SOL     OW10834   4.937   3.410   1.484
 3672SOL    HW110835   4.938   3.357   1.569
 3672SOL    HW210836   4.886   3.359   1.414
 3673SOL     OW10837   4.045   2.822   0.247
 3673SOL    HW110838   4.124   2.851   0.193
 3673SOL    HW210839   4.021   2.728   0.225
 3674SOL     OW10840   4.172   3.130   1.716
 3674SOL    HW110841   4.139   3.137   1.622
 3674SOL    HW210842   4.097   3.146   1.779
 3675SOL     OW10843   4.864   3.633   0.251
 3675SOL    HW110844   4.800   3.580   0.307
 3675SOL    HW210845   4.858   3.601   0.156
 3676SOL     OW10846   3.906   2.139   1.469
 3676SOL    HW110847   3.836   2.208   1.489
 3676SOL    HW210848   3.877   2.051   1.506
 3677SOL     OW10849   0.245   3.206   0.076
 3677SOL    HW110850   0.238   3.258   5.078
 3677SOL    HW210851   0.154   3.175   0.103
 3678SOL     OW10852   4.167   3.596   0.306
 3678SOL    HW110853   4.223   3.653   0.367
 3678SOL    HW210854   4.226   3.540   0.248
 3679SOL     OW10855   3.973   3.664   1.215
 3679SOL    HW110856   4.028   3.590   1.254
 3679SOL    HW210857   3.939   3.637   1.125
 3680SOL     OW10858   4.695   3.567   0.899
 3680SOL    HW110859   4.787   3.530   0.913
 3680SOL    HW210860   4.644   3.507   0.838
 3681SOL     OW10861   4.098   2.532   0.447
 3681SOL    HW110862   4.124   2.437   0.464
 3681SOL    HW210863   4.004   2.547   0.479
 3682SOL     OW10864   4.488   2.141   1.734
 3682SOL    HW110865   4.574   2.090   1.730
 3682SOL    HW210866   4.432   2.105   1.809
 3683SOL     OW10867   4.586   3.391   1.181
 3683SOL    HW110868   4.582   3.367   1.084
 3683SOL    HW210869   4.655   3.335   1.226
 3684SOL     OW10870   4.527   3.279   0.910
 3684SOL    HW110871   4.616   3.254   0.873
 3684SOL    HW210872   4.456   3.265   0.840
 3685SOL     OW10873   4.669   2.336   0.913
 3685SOL    HW110874   4.646   2.324   0.816
 3685SOL    HW210875   4.716   2.254   0.946
 3686SOL     OW10876   4.303   1.910   0.468
 3686SOL    HW110877   4.231   1.918   0.538
 3686SOL    HW210878   4.295   1.986   0.403
 3687SOL     OW10879   4.008   1.962   0.219
 3687SOL    HW110880   4.083   2.028   0.221
 3687SOL    HW210881   4.045   1.869   0.228
 3688SOL     OW10882   4.652   2.116   0.468
 3688SOL    HW110883   4.620   2.156   0.382
 3688SOL    HW210884   4.750   2.133   0.477
 3689SOL     OW10885   4.801   2.531   1.469
 3689SOL    HW110886   4.709   2.491   1.472
 3689SOL    HW210887   4.868   2.464   1.500
 3690SOL     OW10888   4.960   3.407   0.780
 3690SOL    HW110889   4.974   3.474   0.708
 3690SOL    HW210890   5.047   3.365   0.805
 3691SOL     OW10891   4.189   3.007   0.733
 3691SOL    HW110892   4.119   2.979   0.798
 3691SOL    HW210893   4.152   3.005   0.640
 3692SOL     OW10894   5.028   3.682   0.589
 3692SOL    HW110895   5.056   3.742   0.515
 3692SOL    HW210896   4.961   3.729   0.647
 3693SOL     OW10897   4.736   2.385   0.050
 3693SOL    HW110898   4.717   2.470   0.001
 3693SOL    HW210899   4.807   2.400   0.118
 3694SOL     OW10900   3.790   2.423   1.373
 3694SOL    HW110901   3.884   2.404   1.347
 3694SOL    HW210902   3.788   2.498   1.439
 3695SOL     OW10903   4.288   2.103   1.169
 3695SOL    HW110904   4.342   2.023   1.197
 3695SOL    HW210905   4.194   2.091   1.199
 3696SOL     OW10906   4.614   2.307   0.657
 3696SOL    HW110907   4.573   2.377   0.598
 3696SOL    HW210908   4.617   2.220   0.608
 3697SOL     OW10909   4.787   1.909   0.738
 3697SOL    HW110910   4.723   1.918   0.662
 3697SOL    HW210911   4.757   1.835   0.798
 3698SOL     OW10912   4.233   3.243   0.150
 3698SOL    HW110913   4.164   3.225   0.221
 3698SOL    HW210914   4.188   3.275   0.067
 3699SOL     OW10915   0.310   3.208   0.764
 3699SOL    HW110916   0.374   3.132   0.751
 3699SOL    HW210917   0.290   3.250   0.676
 3700SOL     OW10918   4.229   2.099   0.282
 3700SOL    HW110919   4.279   2.054   0.208
 3700SOL    HW210920   4.211   2.194   0.258
 3701SOL     OW10921   4.777   3.207   1.345
 3701SOL    HW110922   4.689   3.179   1.383
 3701SOL    HW210923   4.851   3.155   1.389
 3702SOL     OW10924   4.854   3.094   1.109
 3702SOL    HW110925   4.815   3.143   1.187
 3702SOL    HW210926   4.821   3.134   1.024
 3703SOL     OW10927   4.646   1.985   1.408
 3703SOL    HW110928   4.656   1.954   1.313
 3703SOL    HW210929   4.731   2.029   1.437
 3704SOL     OW10930   4.695   2.964   1.737
 3704SOL    HW110931   4.607   3.002   1.763
 3704SOL    HW210932   4.681   2.885   1.676
 3705SOL     OW10933   4.429   2.913   0.363
 3705SOL    HW110934   4.423   2.925   0.462
 3705SOL    HW210935   4.516   2.868   0.340
 3706SOL     OW10936   4.146   2.681   1.268
 3706SOL    HW110937   4.225   2.672   1.329
 3706SOL    HW210938   4.098   2.593   1.263
 3707SOL     OW10939   5.018   2.219   1.253
 3707SOL    HW110940   5.066   2.294   1.298
 3707SOL    HW210941   4.922   2.246   1.237
 3708SOL     OW10942   3.804   3.432   1.333
 3708SOL    HW110943   3.791   3.528   1.309
 3708SOL    HW210944   3.901   3.408   1.325
 3709SOL     OW10945   4.098   2.996   0.483
 3709SOL    HW110946   4.112   3.069   0.415
 3709SOL    HW210947   4.079   2.910   0.435
 3710SOL     OW10948   4.264   2.410   0.852
 3710SOL    HW110949   4.266   2.488   0.789
 3710SOL    HW210950   4.338   2.419   0.919
 3711SOL     OW10951   4.971   3.211   0.445
 3711SOL    HW110952   4.998   3.307   0.439
 3711SOL    HW210953   4.876   3.205   0.477
 3712SOL     OW10954   4.067   3.381   1.308
 3712SOL    HW110955   4.050   3.344   1.216
 3712SOL    HW210956   4.163   3.406   1.317
 3713SOL     OW10957   4.161   2.590   1.619
 3713SOL    HW110958   4.221   2.634   1.553
 3713SOL    HW210959   4.195   2.498   1.641
 3714SOL     OW10960   4.712   1.975   1.758
 3714SOL    HW110961   4.789   2.038   1.761
 3714SOL    HW210962   4.739   1.890   1.712
 3715SOL     OW10963   4.200   1.871   1.750
 3715SOL    HW110964   4.164   1.812   1.678
 3715SOL    HW210965   4.138   1.948   1.764
 3716SOL     OW10966   4.297   2.751   1.038
 3716SOL    HW110967   4.331   2.845   1.033
 3716SOL    HW210968   4.254   2.735   1.127
 3717SOL     OW10969   5.067   2.716   1.039
 3717SOL    HW110970   4.978   2.696   0.997
 3717SOL    HW210971   0.023   2.631   1.068
 3718SOL     OW10972   4.911   2.389   0.275
 3718SOL    HW110973   4.925   2.314   0.340
 3718SOL    HW210974   4.856   2.461   0.317
 3719SOL     OW10975   4.031   2.060   1.237
 3719SOL    HW110976   3.987   2.099   1.318
 3719SOL    HW210977   4.003   1.964   1.226
 3720SOL     OW10978   3.765   3.159   1.290
 3720SOL    HW110979   3.797   3.091   1.356
 3720SOL    HW210980   3.780   3.251   1.327
 3721SOL     OW10981   4.446   2.504   1.041
 3721SOL    HW110982   4.530   2.478   0.992
 3721SOL    HW210983   4.419   2.596   1.013
 3722SOL     OW10984   4.065   1.956   0.601
 3722SOL    HW110985   4.022   2.045   0.619
 3722SOL    HW210986   4.068   1.904   0.687
 3723SOL     OW10987   0.217   2.283   0.356
 3723SOL    HW110988   0.286   2.225   0.400
 3723SOL    HW210989   0.180   2.347   0.423
 3724SOL     OW10990   4.752   2.593   0.946
 3724SOL    HW110991   4.749   2.613   1.044
 3724SOL    HW210992   4.734   2.496   0.930
 3725SOL     OW10993   4.670   3.432   1.683
 3725SOL    HW110994   4.675   3.476   1.594
 3725SOL    HW210995   4.718   3.344   1.680
 3726SOL     OW10996   4.061   2.745   1.817
 3726SOL    HW110997   4.137   2.799   1.854
 3726SOL    HW210998   4.096   2.682   1.747
 3727SOL     OW10999   5.011   2.667   0.041
 3727SOL    HW111000   0.012   2.627   0.068
 3727SOL    HW211001   5.013   2.689   5.030
 3728SOL     OW11002   4.794   3.205   0.876
 3728SOL    HW111003   4.798   3.125   0.816
 3728SOL    HW211004   4.856   3.275   0.842
 3729SOL     OW11005   4.017   2.676   0.992
 3729SOL    HW111006   4.113   2.698   0.978
 3729SOL    HW211007   4.006   2.578   1.006
 3730SOL     OW11008   4.052   2.396   1.007
 3730SOL    HW111009   4.015   2.304   0.996
 3730SOL    HW211010   4.128   2.409   0.944
 3731SOL     OW11011   4.891   2.257   1.671
 3731SOL    HW111012   4.820   2.302   1.725
 3731SOL    HW211013   4.981   2.280   1.708
 3732SOL     OW11014   4.895   2.067   1.465
 3732SOL    HW111015   4.895   2.139   1.534
 3732SOL    HW211016   4.944   2.098   1.384
 3733SOL     OW11017   3.826   3.638   0.972
 3733SOL    HW111018   3.775   3.566   0.924
 3733SOL    HW211019   3.913   3.653   0.925
 3734SOL     OW11020   4.218   3.445   0.915
 3734SOL    HW111021   4.290   3.512   0.929
 3734SOL    HW211022   4.251   3.373   0.854
 3735SOL     OW11023   4.715   2.630   1.214
 3735SOL    HW111024   4.768   2.602   1.294
 3735SOL    HW211025   4.618   2.614   1.232
 3736SOL     OW11026   3.751   2.387   1.102
 3736SOL    HW111027   3.836   2.369   1.053
 3736SOL    HW211028   3.771   2.408   1.198
 3737SOL     OW11029   3.946   2.387   1.712
 3737SOL    HW111030   4.015   2.347   1.652
 3737SOL    HW211031   3.890   2.452   1.660
 3738SOL     OW11032   4.507   2.409   0.386
 3738SOL    HW111033   4.520   2.341   0.314
 3738SOL    HW211034   4.439   2.476   0.357
 3739SOL     OW11035   3.973   3.406   1.725
 3739SOL    HW111036   3.963   3.492   1.775
 3739SOL    HW211037   3.969   3.329   1.788
 3740SOL     OW11038   4.389   2.351   1.263
 3740SOL    HW111039   4.356   2.264   1.226
 3740SOL    HW211040   4.403   2.416   1.188
 3741SOL     OW11041   4.660   3.572   1.462
 3741SOL    HW111042   4.617   3.537   1.379
 3741SOL    HW211043   4.649   3.672   1.465
 3742SOL     OW11044   4.175   2.349   0.197
 3742SOL    HW111045   4.246   2.412   0.229
 3742SOL    HW211046   4.090   2.399   0.182
 3743SOL     OW11047   3.847   2.972   1.456
 3743SOL    HW111048   3.855   2.921   1.541
 3743SOL    HW211049   3.862   2.910   1.378
 3744SOL     OW11050   4.998   2.907   1.231
 3744SOL    HW111051   5.038   2.845   1.163
 3744SOL    HW211052   4.941   2.975   1.184
 3745SOL     OW11053   4.976   3.589   1.104
 3745SOL    HW111054   5.055   3.628   1.056
 3745SOL    HW211055   5.006   3.517   1.166
 3746SOL     OW11056   3.816   3.124   1.033
 3746SOL    HW111057   3.794   3.133   1.131
 3746SOL    HW211058   3.745   3.069   0.989
 3747SOL     OW11059   4.421   3.513   1.766
 3747SOL    HW111060   4.373   3.590   1.725
 3747SOL    HW211061   4.514   3.508   1.730
 3748SOL     OW11062   4.618   1.944   0.126
 3748SOL    HW111063   4.656   1.951   0.034
 3748SOL    HW211064   4.682   1.895   0.185
 3749SOL     OW11065   5.061   3.452   0.418
 3749SOL    HW111066   0.064   3.438   0.376
 3749SOL    HW211067   5.067   3.529   0.483
 3750SOL     OW11068   3.895   3.642   1.829
 3750SOL    HW111069   3.835   3.579   1.878
 3750SOL    HW211070   3.944   3.699   1.894
 3751SOL     OW11071   4.990   2.808   0.624
 3751SOL    HW111072   5.077   2.765   0.648
 3751SOL    HW211073   5.007   2.902   0.593
 3752SOL     OW11074   4.488   3.137   1.421
 3752SOL    HW111075   4.466   3.200   1.495
 3752SOL    HW211076   4.409   3.130   1.360
 3753SOL     OW11077   4.372   3.478   0.168
 3753SOL    HW111078   4.442   3.492   0.098
 3753SOL    HW211079   4.342   3.383   0.166
 3754SOL     OW11080   3.970   2.193   0.701
 3754SOL    HW111081   3.878   2.227   0.680
 3754SOL    HW211082   3.985   2.198   0.800
 3755SOL     OW11083   4.847   3.497   5.082
 3755SOL    HW111084   4.934   3.469   0.037
 3755SOL    HW211085   4.857   3.494   4.983
 3756SOL     OW11086   4.565   2.883   1.362
 3756SOL    HW111087   4.625   2.887   1.281
 3756SOL    HW211088   4.538   2.976   1.387
 3757SOL     OW11089   4.663   2.798   0.295
 3757SOL    HW111090   4.725   2.819   0.219
 3757SOL    HW211091   4.693   2.714   0.340
 3758SOL     OW11092   4.059   3.138   1.472
 3758SOL    HW111093   4.051   3.216   1.410
 3758SOL    HW211094   3.984   3.074   1.455
 3759SOL     OW11095   4.788   2.974   0.739
 3759SOL    HW111096   4.705   2.920   0.751
 3759SOL    HW211097   4.860   2.917   0.700
 3760SOL     OW11098   4.776   2.075   0.970
 3760SOL    HW111099   4.771   2.035   0.878
 3760SOL    HW211100   4.775   2.001   1.038
 3761SOL     OW11101   4.329   3.352   0.494
 3761SOL    HW111102   4.386   3.315   0.421
 3761SOL    HW211103   4.245   3.389   0.456
 3762SOL     OW11104   3.987   3.216   0.285
 3762SOL    HW111105   3.906   3.248   0.236
 3762SOL    HW211106   3.986   3.253   0.378
 3763SOL     OW11107   3.853   2.854   1.691
 3763SOL    HW111108   3.774   2.852   1.751
 3763SOL    HW211109   3.934   2.821   1.740
 3764SOL     OW11110   4.395   2.040   1.495
 3764SOL    HW111111   4.485   2.021   1.454
 3764SOL    HW211112   4.408   2.082   1.584
 3765SOL     OW11113   0.054   2.697   1.393
 3765SOL    HW111114   5.054   2.746   1.382
 3765SOL    HW211115   0.124   2.742   1.337
 3766SOL     OW11116   3.763   2.033   0.307
 3766SOL    HW111117   3.738   2.123   0.271
 3766SOL    HW211118   3.858   2.013   0.283
 3767SOL     OW11119   4.362   2.668   1.424
 3767SOL    HW111120   4.410   2.756   1.423
 3767SOL    HW211121   4.427   2.595   1.447
 3768SOL     OW11122   4.436   2.423   1.706
 3768SOL    HW111123   4.475   2.489   1.771
 3768SOL    HW211124   4.456   2.330   1.737
 3769SOL     OW11125   4.091   3.589   1.557
 3769SOL    HW111126   4.011   3.645   1.536
 3769SOL    HW211127   4.062   3.504   1.602
 3770SOL     OW11128   4.915   2.162   0.470
 3770SOL    HW111129   4.991   2.121   0.419
 3770SOL    HW211130   4.952   2.222   0.541
 3771SOL     OW11131   4.276   2.619   0.673
 3771SOL    HW111132   4.345   2.689   0.656
 3771SOL    HW211133   4.227   2.599   0.588
 3772SOL     OW11134   4.597   3.237   0.013
 3772SOL    HW111135   4.561   3.222   0.105
 3772SOL    HW211136   4.607   3.335   5.083
 3773SOL     OW11137   4.384   3.667   0.930
 3773SOL    HW111138   4.368   3.762   0.904
 3773SOL    HW211139   4.482   3.650   0.936
 3774SOL     OW11140   4.590   2.797   0.842
 3774SOL    HW111141   4.652   2.729   0.882
 3774SOL    HW211142   4.562   2.862   0.912
 3775SOL     OW11143   4.812   2.845   0.082
 3775SOL    HW111144   4.840   2.934   0.044
 3775SOL    HW211145   4.888   2.781   0.075
 3776SOL     OW11146   3.963   3.175   1.873
 3776SOL    HW111147   3.891   3.116   1.837
 3776SOL    HW211148   3.954   3.184   1.972
 3777SOL     OW11149   3.820   3.127   0.664
 3777SOL    HW111150   3.826   3.063   0.740
 3777SOL    HW211151   3.882   3.099   0.591
 3778SOL     OW11152   4.378   3.284   1.618
 3778SOL    HW111153   4.307   3.223   1.653
 3778SOL    HW211154   4.390   3.360   1.681
 3779SOL     OW11155   4.148   2.273   0.502
 3779SOL    HW111156   4.182   2.193   0.452
 3779SOL    HW211157   4.097   2.242   0.583
 3780SOL     OW11158   4.063   2.399   1.284
 3780SOL    HW111159   4.142   2.365   1.335
 3780SOL    HW211160   4.076   2.379   1.186
 3781SOL     OW11161   4.545   3.465   0.662
 3781SOL    HW111162   4.544   3.477   0.563
 3781SOL    HW211163   4.464   3.414   0.690
 3782SOL     OW11164   4.747   1.867   1.147
 3782SOL    HW111165   4.680   1.812   1.097
 3782SOL    HW211166   4.833   1.817   1.153
 3783SOL     OW11167   4.503   3.219   0.317
 3783SOL    HW111168   4.445   3.138   0.306
 3783SOL    HW211169   4.580   3.197   0.376
 3784SOL     OW11170   4.330   3.422   1.267
 3784SOL    HW111171   4.333   3.505   1.322
 3784SOL    HW211172   4.421   3.406   1.227
 3785SOL     OW11173   3.768   2.952   0.296
 3785SOL    HW111174   3.863   2.964   0.266
 3785SOL    HW211175   3.757   2.859   0.333
 3786SOL     OW11176   4.606   3.503   0.343
 3786SOL    HW111177   4.522   3.482   0.293
 3786SOL    HW211178   4.596   3.590   0.392
 3787SOL     OW11179   3.952   2.492   1.995
 3787SOL    HW111180   3.855   2.509   2.013
 3787SOL    HW211181   3.964   2.476   1.897
 3788SOL     OW11182   3.963   2.132   2.872
 3788SOL    HW111183   3.984   2.109   2.967
 3788SOL    HW211184   3.871   2.100   2.849
 3789SOL     OW11185   4.263   3.152   3.032
 3789SOL    HW111186   4.169   3.146   3.001
 3789SOL    HW211187   4.282   3.244   3.066
 3790SOL     OW11188   4.845   2.575   2.549
 3790SOL    HW111189   4.887   2.662   2.522
 3790SOL    HW211190   4.809   2.583   2.642
 3791SOL     OW11191   4.462   3.029   2.875
 3791SOL    HW111192   4.389   3.061   2.936
 3791SOL    HW211193   4.505   3.108   2.831
 3792SOL     OW11194   4.586   2.627   3.689
 3792SOL    HW111195   4.563   2.697   3.757
 3792SOL    HW211196   4.602   2.671   3.601
 3793SOL     OW11197   4.407   2.915   2.522
 3793SOL    HW111198   4.476   2.877   2.584
 3793SOL    HW211199   4.335   2.960   2.575
 3794SOL     OW11200   4.418   3.014   3.660
 3794SOL    HW111201   4.465   3.097   3.691
 3794SOL    HW211202   4.326   3.038   3.630
 3795SOL     OW11203   4.031   3.295   2.918
 3795SOL    HW111204   3.956   3.244   2.877
 3795SOL    HW211205   4.084   3.341   2.846
 3796SOL     OW11206   4.152   2.242   3.396
 3796SOL    HW111207   4.229   2.181   3.381
 3796SOL    HW211208   4.067   2.197   3.367
 3797SOL     OW11209   3.959   3.563   2.356
 3797SOL    HW111210   3.974   3.649   2.404
 3797SOL    HW211211   4.008   3.565   2.269
 3798SOL     OW11212   4.823   3.217   3.567
 3798SOL    HW111213   4.857   3.205   3.660
 3798SOL    HW211214   4.776   3.133   3.538
 3799SOL     OW11215   3.990   3.289   2.398
 3799SOL    HW111216   3.981   3.389   2.398
 3799SOL    HW211217   3.917   3.249   2.455
 3800SOL     OW11218   3.981   2.945   2.774
 3800SOL    HW111219   3.910   2.889   2.731
 3800SOL    HW211220   3.938   3.018   2.828
 3801SOL     OW11221   4.331   3.669   3.278
 3801SOL    HW111222   4.249   3.636   3.324
 3801SOL    HW211223   4.354   3.760   3.310
 3802SOL     OW11224   4.310   2.855   1.999
 3802SOL    HW111225   4.347   2.906   1.922
 3802SOL    HW211226   4.351   2.888   2.084
 3803SOL     OW11227   3.762   3.464   1.985
 3803SOL    HW111228   3.760   3.365   1.999
 3803SOL    HW211229   3.725   3.510   2.066
 3804SOL     OW11230   3.843   2.605   3.452
 3804SOL    HW111231   3.938   2.632   3.437
 3804SOL    HW211232   3.791   2.685   3.482
 3805SOL     OW11233   4.314   3.272   2.613
 3805SOL    HW111234   4.268   3.184   2.626
 3805SOL    HW211235   4.318   3.294   2.516
 3806SOL     OW11236   4.990   3.091   3.302
 3806SOL    HW111237   4.993   3.014   3.238
 3806SOL    HW211238   5.058   3.077   3.374
 3807SOL     OW11239   4.573   1.869   2.355
 3807SOL    HW111240   4.604   1.963   2.344
 3807SOL    HW211241   4.474   1.867   2.365
 3808SOL     OW11242   3.892   2.818   3.110
 3808SOL    HW111243   3.969   2.826   3.048
 3808SOL    HW211244   3.813   2.779   3.061
 3809SOL     OW11245   4.950   3.665   3.429
 3809SOL    HW111246   4.899   3.739   3.387
 3809SOL    HW211247   4.917   3.577   3.394
 3810SOL     OW11248   4.067   2.101   3.661
 3810SOL    HW111249   4.129   2.178   3.643
 3810SOL    HW211250   3.979   2.136   3.694
 3811SOL     OW11251   4.312   2.590   2.099
 3811SOL    HW111252   4.338   2.674   2.052
 3811SOL    HW211253   4.233   2.608   2.158
 3812SOL     OW11254   5.019   2.193   2.771
 3812SOL    HW111255   4.929   2.155   2.793
 3812SOL    HW211256   5.065   2.220   2.855
 3813SOL     OW11257   4.538   2.468   3.323
 3813SOL    HW111258   4.509   2.443   3.415
 3813SOL    HW211259   4.484   2.418   3.255
 3814SOL     OW11260   4.670   2.743   3.440
 3814SOL    HW111261   4.725   2.669   3.404
 3814SOL    HW211262   4.631   2.796   3.365
 3815SOL     OW11263   4.731   2.248   3.103
 3815SOL    HW111264   4.647   2.283   3.146
 3815SOL    HW211265   4.708   2.190   3.025
 3816SOL     OW11266   4.752   2.536   2.281
 3816SOL    HW111267   4.784   2.550   2.375
 3816SOL    HW211268   4.665   2.487   2.282
 3817SOL     OW11269   3.829   3.716   3.427
 3817SOL    HW111270   3.847   3.692   3.523
 3817SOL    HW211271   3.740   3.680   3.400
 3818SOL     OW11272   4.578   2.199   2.087
 3818SOL    HW111273   4.653   2.238   2.032
 3818SOL    HW211274   4.538   2.122   2.038
 3819SOL     OW11275   4.277   2.063   2.764
 3819SOL    HW111276   4.270   2.071   2.864
 3819SOL    HW211277   4.285   2.154   2.724
 3820SOL     OW11278   4.689   3.308   2.341
 3820SOL    HW111279   4.654   3.372   2.273
 3820SOL    HW211280   4.700   3.355   2.429
 3821SOL     OW11281   4.066   3.670   2.716
 3821SOL    HW111282   4.109   3.584   2.743
 3821SOL    HW211283   4.130   3.746   2.732
 3822SOL     OW11284   4.929   3.405   3.346
 3822SOL    HW111285   4.933   3.348   3.427
 3822SOL    HW211286   4.880   3.356   3.273
 3823SOL     OW11287   4.035   2.794   2.110
 3823SOL    HW111288   4.125   2.832   2.088
 3823SOL    HW211289   4.006   2.734   2.036
 3824SOL     OW11290   4.179   3.127   3.584
 3824SOL    HW111291   4.147   3.134   3.490
 3824SOL    HW211292   4.102   3.138   3.647
 3825SOL     OW11293   4.857   3.609   2.109
 3825SOL    HW111294   4.786   3.564   2.162
 3825SOL    HW211295   4.843   3.589   2.012
 3826SOL     OW11296   3.889   2.142   3.364
 3826SOL    HW111297   3.816   2.197   3.405
 3826SOL    HW211298   3.876   2.046   3.388
 3827SOL     OW11299   4.178   3.600   2.169
 3827SOL    HW111300   4.221   3.651   2.244
 3827SOL    HW211301   4.249   3.560   2.111
 3828SOL     OW11302   3.964   3.650   3.074
 3828SOL    HW111303   4.021   3.581   3.119
 3828SOL    HW211304   3.938   3.617   2.983
 3829SOL     OW11305   4.694   3.564   2.751
 3829SOL    HW111306   4.780   3.520   2.775
 3829SOL    HW211307   4.646   3.508   2.683
 3830SOL     OW11308   4.109   2.580   2.285
 3830SOL    HW111309   4.086   2.487   2.256
 3830SOL    HW211310   4.029   2.639   2.275
 3831SOL     OW11311   4.382   1.981   1.932
 3831SOL    HW111312   4.452   1.915   1.959
 3831SOL    HW211313   4.312   1.936   1.876
 3832SOL     OW11314   4.498   2.141   3.598
 3832SOL    HW111315   4.578   2.081   3.596
 3832SOL    HW211316   4.437   2.114   3.672
 3833SOL     OW11317   4.605   3.385   3.041
 3833SOL    HW111318   4.594   3.358   2.945
 3833SOL    HW211319   4.666   3.321   3.087
 3834SOL     OW11320   4.531   3.282   2.777
 3834SOL    HW111321   4.617   3.254   2.735
 3834SOL    HW211322   4.458   3.280   2.708
 3835SOL     OW11323   4.646   2.345   2.765
 3835SOL    HW111324   4.626   2.345   2.667
 3835SOL    HW211325   4.691   2.259   2.790
 3836SOL     OW11326   4.298   1.907   2.349
 3836SOL    HW111327   4.231   1.909   2.423
 3836SOL    HW211328   4.280   1.983   2.286
 3837SOL     OW11329   4.014   1.901   2.041
 3837SOL    HW111330   4.063   1.980   2.006
 3837SOL    HW211331   4.078   1.837   2.084
 3838SOL     OW11332   4.656   2.122   2.346
 3838SOL    HW111333   4.615   2.160   2.263
 3838SOL    HW211334   4.756   2.125   2.339
 3839SOL     OW11335   4.810   2.531   3.325
 3839SOL    HW111336   4.717   2.493   3.329
 3839SOL    HW211337   4.876   2.463   3.357
 3840SOL     OW11338   4.955   3.408   2.643
 3840SOL    HW111339   4.970   3.475   2.571
 3840SOL    HW211340   5.042   3.384   2.685
 3841SOL     OW11341   4.182   3.035   2.610
 3841SOL    HW111342   4.112   3.008   2.676
 3841SOL    HW211343   4.151   3.011   2.518
 3842SOL     OW11344   5.024   3.698   2.452
 3842SOL    HW111345   5.058   3.759   2.380
 3842SOL    HW211346   4.960   3.749   2.510
 3843SOL     OW11347   4.779   2.421   1.859
 3843SOL    HW111348   4.703   2.487   1.859
 3843SOL    HW211349   4.831   2.431   1.944
 3844SOL     OW11350   3.780   2.423   3.260
 3844SOL    HW111351   3.874   2.398   3.236
 3844SOL    HW211352   3.781   2.504   3.319
 3845SOL     OW11353   4.282   2.084   3.036
 3845SOL    HW111354   4.345   2.013   3.067
 3845SOL    HW211355   4.191   2.066   3.074
 3846SOL     OW11356   4.599   2.332   2.505
 3846SOL    HW111357   4.548   2.388   2.439
 3846SOL    HW211358   4.624   2.245   2.462
 3847SOL     OW11359   4.778   1.913   2.603
 3847SOL    HW111360   4.716   1.916   2.525
 3847SOL    HW211361   4.755   1.836   2.662
 3848SOL     OW11362   4.220   3.245   2.029
 3848SOL    HW111363   4.131   3.246   2.073
 3848SOL    HW211364   4.211   3.208   1.936
 3849SOL     OW11365   0.300   3.211   2.641
 3849SOL    HW111366   0.364   3.134   2.638
 3849SOL    HW211367   0.296   3.254   2.551
 3850SOL     OW11368   4.235   2.083   2.160
 3850SOL    HW111369   4.288   2.052   2.082
 3850SOL    HW211370   4.201   2.176   2.143
 3851SOL     OW11371   4.778   3.201   3.183
 3851SOL    HW111372   4.694   3.185   3.235
 3851SOL    HW211373   4.856   3.162   3.232
 3852SOL     OW11374   4.841   3.082   2.941
 3852SOL    HW111375   4.807   3.133   3.021
 3852SOL    HW211376   4.808   3.126   2.858
 3853SOL     OW11377   4.636   1.982   3.258
 3853SOL    HW111378   4.653   1.949   3.165
 3853SOL    HW211379   4.718   2.026   3.294
 3854SOL     OW11380   4.690   2.976   3.576
 3854SOL    HW111381   4.599   2.999   3.610
 3854SOL    HW211382   4.685   2.889   3.525
 3855SOL     OW11383   4.433   2.916   2.240
 3855SOL    HW111384   4.425   2.922   2.340
 3855SOL    HW211385   4.510   2.855   2.217
 3856SOL     OW11386   4.149   2.657   3.085
 3856SOL    HW111387   4.220   2.665   3.154
 3856SOL    HW211388   4.082   2.588   3.113
 3857SOL     OW11389   5.009   2.229   3.122
 3857SOL    HW111390   5.057   2.306   3.165
 3857SOL    HW211391   4.913   2.254   3.108
 3858SOL     OW11392   3.802   3.418   3.200
 3858SOL    HW111393   3.788   3.510   3.165
 3858SOL    HW211394   3.899   3.395   3.196
 3859SOL     OW11395   4.105   2.969   2.355
 3859SOL    HW111396   4.134   3.040   2.291
 3859SOL    HW211397   4.086   2.885   2.305
 3860SOL     OW11398   4.301   2.384   2.735
 3860SOL    HW111399   4.325   2.453   2.666
 3860SOL    HW211400   4.349   2.404   2.820
 3861SOL     OW11401   4.958   3.231   2.253
 3861SOL    HW111402   4.995   3.315   2.293
 3861SOL    HW211403   4.868   3.213   2.291
 3862SOL     OW11404   4.067   3.368   3.161
 3862SOL    HW111405   4.045   3.336   3.069
 3862SOL    HW211406   4.164   3.392   3.166
 3863SOL     OW11407   4.150   2.591   3.471
 3863SOL    HW111408   4.212   2.633   3.405
 3863SOL    HW211409   4.179   2.496   3.489
 3864SOL     OW11410   4.708   1.976   3.614
 3864SOL    HW111411   4.787   2.037   3.615
 3864SOL    HW211412   4.735   1.887   3.576
 3865SOL     OW11413   4.212   1.884   3.601
 3865SOL    HW111414   4.169   1.823   3.534
 3865SOL    HW211415   4.152   1.962   3.619
 3866SOL     OW11416   4.323   2.760   2.894
 3866SOL    HW111417   4.339   2.858   2.890
 3866SOL    HW211418   4.258   2.740   2.967
 3867SOL     OW11419   0.002   2.729   2.913
 3867SOL    HW111420   5.001   2.718   2.867
 3867SOL    HW211421   0.040   2.640   2.936
 3868SOL     OW11422   4.940   2.390   2.136
 3868SOL    HW111423   4.937   2.306   2.191
 3868SOL    HW211424   4.887   2.461   2.180
 3869SOL     OW11425   4.031   2.043   3.123
 3869SOL    HW111426   3.980   2.083   3.199
 3869SOL    HW211427   3.999   1.949   3.107
 3870SOL     OW11428   3.774   3.145   3.153
 3870SOL    HW111429   3.802   3.086   3.229
 3870SOL    HW211430   3.773   3.240   3.185
 3871SOL     OW11431   4.469   2.512   2.927
 3871SOL    HW111432   4.538   2.471   2.868
 3871SOL    HW211433   4.450   2.605   2.896
 3872SOL     OW11434   4.035   1.944   2.487
 3872SOL    HW111435   3.953   1.999   2.504
 3872SOL    HW211436   4.055   1.888   2.567
 3873SOL     OW11437   0.257   2.242   2.237
 3873SOL    HW111438   0.190   2.169   2.220
 3873SOL    HW211439   0.215   2.313   2.293
 3874SOL     OW11440   4.740   2.597   2.811
 3874SOL    HW111441   4.747   2.614   2.909
 3874SOL    HW211442   4.715   2.501   2.795
 3875SOL     OW11443   4.674   3.435   3.545
 3875SOL    HW111444   4.676   3.481   3.456
 3875SOL    HW211445   4.720   3.347   3.538
 3876SOL     OW11446   4.079   2.765   3.660
 3876SOL    HW111447   4.160   2.794   3.711
 3876SOL    HW211448   4.102   2.687   3.603
 3877SOL     OW11449   5.057   2.719   1.877
 3877SOL    HW111450   0.001   2.666   1.956
 3877SOL    HW211451   5.071   2.666   1.793
 3878SOL     OW11452   4.781   3.208   2.704
 3878SOL    HW111453   4.786   3.125   2.649
 3878SOL    HW211454   4.847   3.274   2.671
 3879SOL     OW11455   4.050   2.653   2.804
 3879SOL    HW111456   4.119   2.724   2.806
 3879SOL    HW211457   4.049   2.603   2.891
 3880SOL     OW11458   4.044   2.381   2.886
 3880SOL    HW111459   4.014   2.286   2.871
 3880SOL    HW211460   4.113   2.405   2.818
 3881SOL     OW11461   4.873   2.240   3.546
 3881SOL    HW111462   4.809   2.294   3.599
 3881SOL    HW211463   4.966   2.257   3.578
 3882SOL     OW11464   4.886   2.062   3.337
 3882SOL    HW111465   4.880   2.133   3.407
 3882SOL    HW211466   4.941   2.094   3.260
 3883SOL     OW11467   3.722   3.184   2.055
 3883SOL    HW111468   3.631   3.203   2.021
 3883SOL    HW211469   3.725   3.091   2.093
 3884SOL     OW11470   3.814   3.641   2.810
 3884SOL    HW111471   3.776   3.561   2.764
 3884SOL    HW211472   3.904   3.662   2.772
 3885SOL     OW11473   4.215   3.456   2.786
 3885SOL    HW111474   4.287   3.520   2.815
 3885SOL    HW211475   4.254   3.390   2.722
 3886SOL     OW11476   4.716   2.635   3.078
 3886SOL    HW111477   4.773   2.601   3.153
 3886SOL    HW211478   4.621   2.609   3.094
 3887SOL     OW11479   3.756   2.379   2.970
 3887SOL    HW111480   3.844   2.375   2.924
 3887SOL    HW211481   3.769   2.406   3.066
 3888SOL     OW11482   3.952   2.377   3.561
 3888SOL    HW111483   4.009   2.332   3.491
 3888SOL    HW211484   3.905   2.455   3.520
 3889SOL     OW11485   4.502   2.420   2.246
 3889SOL    HW111486   4.523   2.345   2.184
 3889SOL    HW211487   4.446   2.488   2.199
 3890SOL     OW11488   3.970   3.410   3.573
 3890SOL    HW111489   3.955   3.488   3.634
 3890SOL    HW211490   3.982   3.327   3.628
 3891SOL     OW11491   4.393   2.346   3.125
 3891SOL    HW111492   4.347   2.265   3.089
 3891SOL    HW211493   4.406   2.413   3.052
 3892SOL     OW11494   4.661   3.573   3.323
 3892SOL    HW111495   4.632   3.538   3.233
 3892SOL    HW211496   4.644   3.671   3.328
 3893SOL     OW11497   4.172   2.351   2.070
 3893SOL    HW111498   4.248   2.416   2.064
 3893SOL    HW211499   4.088   2.396   2.040
 3894SOL     OW11500   3.858   2.968   3.331
 3894SOL    HW111501   3.858   2.921   3.420
 3894SOL    HW211502   3.866   2.900   3.258
 3895SOL     OW11503   4.978   2.909   3.100
 3895SOL    HW111504   5.028   2.848   3.038
 3895SOL    HW211505   4.919   2.969   3.046
 3896SOL     OW11506   4.982   3.581   2.980
 3896SOL    HW111507   5.055   3.623   2.925
 3896SOL    HW211508   5.023   3.518   3.046
 3897SOL     OW11509   3.821   3.123   2.894
 3897SOL    HW111510   3.798   3.129   2.991
 3897SOL    HW211511   3.750   3.072   2.846
 3898SOL     OW11512   4.410   3.512   3.615
 3898SOL    HW111513   4.358   3.588   3.577
 3898SOL    HW211514   4.504   3.516   3.581
 3899SOL     OW11515   5.063   3.463   2.330
 3899SOL    HW111516   0.066   3.472   2.288
 3899SOL    HW211517   5.036   3.550   2.371
 3900SOL     OW11518   3.889   3.644   3.688
 3900SOL    HW111519   3.832   3.579   3.739
 3900SOL    HW211520   3.943   3.699   3.752
 3901SOL     OW11521   4.991   2.812   2.497
 3901SOL    HW111522   5.078   2.771   2.522
 3901SOL    HW211523   5.007   2.894   2.441
 3902SOL     OW11524   4.507   3.148   3.281
 3902SOL    HW111525   4.483   3.208   3.357
 3902SOL    HW211526   4.426   3.131   3.224
 3903SOL     OW11527   4.376   3.476   2.025
 3903SOL    HW111528   4.396   3.493   1.928
 3903SOL    HW211529   4.331   3.387   2.034
 3904SOL     OW11530   4.865   3.511   1.863
 3904SOL    HW111531   4.943   3.451   1.850
 3904SOL    HW211532   4.803   3.503   1.784
 3905SOL     OW11533   4.564   2.889   3.240
 3905SOL    HW111534   4.617   2.894   3.156
 3905SOL    HW211535   4.551   2.981   3.277
 3906SOL     OW11536   4.647   2.757   2.145
 3906SOL    HW111537   4.715   2.799   2.085
 3906SOL    HW211538   4.689   2.680   2.194
 3907SOL     OW11539   4.075   3.135   3.337
 3907SOL    HW111540   4.065   3.202   3.264
 3907SOL    HW211541   3.998   3.071   3.333
 3908SOL     OW11542   4.783   2.973   2.583
 3908SOL    HW111543   4.702   2.925   2.615
 3908SOL    HW211544   4.854   2.907   2.558
 3909SOL     OW11545   4.764   2.077   2.829
 3909SOL    HW111546   4.764   2.035   2.738
 3909SOL    HW211547   4.767   2.006   2.899
 3910SOL     OW11548   4.350   3.357   2.358
 3910SOL    HW111549   4.404   3.310   2.289
 3910SOL    HW211550   4.271   3.401   2.314
 3911SOL     OW11551   3.966   3.243   2.139
 3911SOL    HW111552   3.869   3.227   2.124
 3911SOL    HW211553   3.982   3.264   2.235
 3912SOL     OW11554   3.853   2.877   3.575
 3912SOL    HW111555   3.779   2.868   3.642
 3912SOL    HW211556   3.938   2.839   3.614
 3913SOL     OW11557   4.394   2.048   3.362
 3913SOL    HW111558   4.480   2.023   3.317
 3913SOL    HW211559   4.414   2.086   3.452
 3914SOL     OW11560   3.821   2.208   1.876
 3914SOL    HW111561   3.730   2.177   1.845
 3914SOL    HW211562   3.852   2.282   1.817
 3915SOL     OW11563   0.048   2.695   3.249
 3915SOL    HW111564   5.045   2.739   3.243
 3915SOL    HW211565   0.114   2.747   3.196
 3916SOL     OW11566   3.781   2.022   2.151
 3916SOL    HW111567   3.771   2.110   2.105
 3916SOL    HW211568   3.860   1.973   2.113
 3917SOL     OW11569   4.351   2.675   3.279
 3917SOL    HW111570   4.398   2.762   3.272
 3917SOL    HW211571   4.416   2.602   3.299
 3918SOL     OW11572   4.463   2.408   3.569
 3918SOL    HW111573   4.498   2.467   3.641
 3918SOL    HW211574   4.479   2.312   3.594
 3919SOL     OW11575   4.086   3.591   3.414
 3919SOL    HW111576   4.004   3.646   3.398
 3919SOL    HW211577   4.061   3.505   3.458
 3920SOL     OW11578   4.926   2.143   2.306
 3920SOL    HW111579   4.998   2.098   2.252
 3920SOL    HW211580   4.968   2.194   2.381
 3921SOL     OW11581   4.292   2.618   2.523
 3921SOL    HW111582   4.333   2.706   2.546
 3921SOL    HW211583   4.265   2.617   2.427
 3922SOL     OW11584   4.566   3.212   1.882
 3922SOL    HW111585   4.555   3.224   1.981
 3922SOL    HW211586   4.605   3.296   1.843
 3923SOL     OW11587   4.396   3.656   2.806
 3923SOL    HW111588   4.376   3.751   2.781
 3923SOL    HW211589   4.493   3.637   2.792
 3924SOL     OW11590   4.600   2.807   2.701
 3924SOL    HW111591   4.654   2.734   2.741
 3924SOL    HW211592   4.562   2.864   2.774
 3925SOL     OW11593   4.832   2.857   1.955
 3925SOL    HW111594   4.783   2.903   1.881
 3925SOL    HW211595   4.916   2.816   1.919
 3926SOL     OW11596   3.968   3.180   3.729
 3926SOL    HW111597   3.891   3.124   3.699
 3926SOL    HW211598   3.963   3.194   3.828
 3927SOL     OW11599   3.808   3.110   2.498
 3927SOL    HW111600   3.776   3.033   2.553
 3927SOL    HW211601   3.876   3.079   2.433
 3928SOL     OW11602   4.383   3.278   3.475
 3928SOL    HW111603   4.318   3.213   3.513
 3928SOL    HW211604   4.388   3.359   3.532
 3929SOL     OW11605   4.042   2.393   3.157
 3929SOL    HW111606   4.125   2.363   3.204
 3929SOL    HW211607   4.050   2.376   3.059
 3930SOL     OW11608   4.550   3.473   2.536
 3930SOL    HW111609   4.549   3.545   2.466
 3930SOL    HW211610   4.466   3.420   2.531
 3931SOL     OW11611   4.739   1.853   3.011
 3931SOL    HW111612   4.675   1.789   2.968
 3931SOL    HW211613   4.828   1.809   3.022
 3932SOL     OW11614   4.509   3.183   2.171
 3932SOL    HW111615   4.463   3.095   2.178
 3932SOL    HW211616   4.583   3.188   2.238
 3933SOL     OW11617   4.331   3.419   3.126
 3933SOL    HW111618   4.335   3.502   3.183
 3933SOL    HW211619   4.420   3.404   3.084
 3934SOL     OW11620   5.015   1.942   1.939
 3934SOL    HW111621   5.082   1.876   1.905
 3934SOL    HW211622   4.950   1.895   2.000
 3935SOL     OW11623   3.769   2.934   2.159
 3935SOL    HW111624   3.865   2.909   2.145
 3935SOL    HW211625   3.716   2.853   2.185
 3936SOL     OW11626   4.592   3.507   2.188
 3936SOL    HW111627   4.513   3.487   2.130
 3936SOL    HW211628   4.577   3.593   2.236
 3937SOL     OW11629   3.945   2.507   3.853
 3937SOL    HW111630   3.848   2.504   3.877
 3937SOL    HW211631   3.957   2.481   3.757
 3938SOL     OW11632   3.940   2.144   4.712
 3938SOL    HW111633   3.975   2.122   4.804
 3938SOL    HW211634   3.856   2.094   4.696
 3939SOL     OW11635   3.722   2.263   4.329
 3939SOL    HW111636   3.640   2.282   4.382
 3939SOL    HW211637   3.724   2.166   4.304
 3940SOL     OW11638   4.286   3.089   4.874
 3940SOL    HW111639   4.189   3.107   4.855
 3940SOL    HW211640   4.325   3.167   4.924
 3941SOL     OW11641   4.846   2.580   4.416
 3941SOL    HW111642   4.888   2.666   4.387
 3941SOL    HW211643   4.807   2.591   4.507
 3942SOL     OW11644   4.467   2.992   4.706
 3942SOL    HW111645   4.398   3.011   4.776
 3942SOL    HW211646   4.507   3.078   4.674
 3943SOL     OW11647   4.402   2.896   4.389
 3943SOL    HW111648   4.472   2.862   4.452
 3943SOL    HW211649   4.334   2.948   4.441
 3944SOL     OW11650   4.036   3.318   4.807
 3944SOL    HW111651   3.965   3.256   4.775
 3944SOL    HW211652   4.085   3.355   4.728
 3945SOL     OW11653   3.962   3.576   4.226
 3945SOL    HW111654   3.988   3.660   4.275
 3945SOL    HW211655   4.013   3.570   4.141
 3946SOL     OW11656   3.981   3.296   4.268
 3946SOL    HW111657   3.976   3.396   4.269
 3946SOL    HW211658   3.912   3.259   4.329
 3947SOL     OW11659   3.986   2.968   4.635
 3947SOL    HW111660   3.993   2.877   4.675
 3947SOL    HW211661   3.925   3.024   4.691
 3948SOL     OW11662   4.334   3.768   0.099
 3948SOL    HW111663   4.322   3.672   0.126
 3948SOL    HW211664   4.432   3.790   0.101
 3949SOL     OW11665   4.299   2.856   3.846
 3949SOL    HW111666   4.345   2.904   3.771
 3949SOL    HW211667   4.338   2.887   3.933
 3950SOL     OW11668   3.825   2.513   4.289
 3950SOL    HW111669   3.794   2.419   4.301
 3950SOL    HW211670   3.824   2.560   4.378
 3951SOL     OW11671   3.767   3.465   3.841
 3951SOL    HW111672   3.765   3.366   3.853
 3951SOL    HW211673   3.745   3.510   3.927
 3952SOL     OW11674   4.333   3.277   4.460
 3952SOL    HW111675   4.285   3.190   4.475
 3952SOL    HW211676   4.332   3.300   4.363
 3953SOL     OW11677   4.567   1.867   4.217
 3953SOL    HW111678   4.606   1.958   4.209
 3953SOL    HW211679   4.467   1.873   4.219
 3954SOL     OW11680   3.942   2.881   4.976
 3954SOL    HW111681   4.025   2.825   4.969
 3954SOL    HW211682   3.861   2.822   4.975
 3955SOL     OW11683   4.310   2.586   3.990
 3955SOL    HW111684   4.322   2.673   3.944
 3955SOL    HW211685   4.239   2.594   4.060
 3956SOL     OW11686   5.024   2.168   4.628
 3956SOL    HW111687   4.928   2.144   4.640
 3956SOL    HW211688   5.064   2.192   4.716
 3957SOL     OW11689   4.699   2.187   4.958
 3957SOL    HW111690   4.694   2.271   5.012
 3957SOL    HW211691   4.627   2.188   4.888
 3958SOL     OW11692   4.745   2.537   4.149
 3958SOL    HW111693   4.768   2.558   4.244
 3958SOL    HW211694   4.657   2.488   4.146
 3959SOL     OW11695   3.833   2.712   4.495
 3959SOL    HW111696   3.911   2.700   4.557
 3959SOL    HW211697   3.779   2.791   4.524
 3960SOL     OW11698   4.588   2.203   3.948
 3960SOL    HW111699   4.657   2.244   3.888
 3960SOL    HW211700   4.538   2.132   3.897
 3961SOL     OW11701   4.272   2.060   4.620
 3961SOL    HW111702   4.270   2.078   4.718
 3961SOL    HW211703   4.274   2.147   4.570
 3962SOL     OW11704   4.693   3.313   4.198
 3962SOL    HW111705   4.660   3.383   4.135
 3962SOL    HW211706   4.728   3.357   4.281
 3963SOL     OW11707   4.075   3.678   4.589
 3963SOL    HW111708   4.115   3.588   4.602
 3963SOL    HW211709   4.136   3.748   4.627
 3964SOL     OW11710   4.039   2.799   3.963
 3964SOL    HW111711   4.122   2.822   3.913
 3964SOL    HW211712   4.003   2.711   3.930
 3965SOL     OW11713   4.860   3.605   3.974
 3965SOL    HW111714   4.780   3.577   4.027
 3965SOL    HW211715   4.848   3.578   3.878
 3966SOL     OW11716   4.181   3.594   4.049
 3966SOL    HW111717   4.229   3.657   4.110
 3966SOL    HW211718   4.247   3.553   3.986
 3967SOL     OW11719   3.991   3.648   4.934
 3967SOL    HW111720   4.032   3.579   4.994
 3967SOL    HW211721   3.945   3.602   4.858
 3968SOL     OW11722   4.698   3.551   4.628
 3968SOL    HW111723   4.774   3.489   4.647
 3968SOL    HW211724   4.639   3.511   4.558
 3969SOL     OW11725   4.093   2.542   4.205
 3969SOL    HW111726   4.130   2.449   4.210
 3969SOL    HW211727   3.994   2.540   4.223
 3970SOL     OW11728   4.373   1.998   3.793
 3970SOL    HW111729   4.434   1.930   3.833
 3970SOL    HW211730   4.310   1.953   3.729
 3971SOL     OW11731   4.539   3.247   4.649
 3971SOL    HW111732   4.631   3.239   4.610
 3971SOL    HW211733   4.473   3.262   4.575
 3972SOL     OW11734   4.635   2.372   4.630
 3972SOL    HW111735   4.609   2.371   4.533
 3972SOL    HW211736   4.683   2.288   4.653
 3973SOL     OW11737   4.292   1.921   4.201
 3973SOL    HW111738   4.223   1.930   4.272
 3973SOL    HW211739   4.281   1.995   4.135
 3974SOL     OW11740   4.003   1.909   3.916
 3974SOL    HW111741   4.054   1.990   3.887
 3974SOL    HW211742   4.065   1.844   3.960
 3975SOL     OW11743   4.674   2.108   4.200
 3975SOL    HW111744   4.630   2.154   4.123
 3975SOL    HW211745   4.773   2.117   4.192
 3976SOL     OW11746   4.975   3.435   4.519
 3976SOL    HW111747   4.989   3.492   4.438
 3976SOL    HW211748   5.062   3.427   4.569
 3977SOL     OW11749   4.193   3.046   4.474
 3977SOL    HW111750   4.119   3.019   4.536
 3977SOL    HW211751   4.170   3.018   4.380
 3978SOL     OW11752   5.034   3.695   4.330
 3978SOL    HW111753   5.059   3.761   4.260
 3978SOL    HW211754   4.959   3.732   4.385
 3979SOL     OW11755   4.777   2.412   3.728
 3979SOL    HW111756   4.710   2.487   3.723
 3979SOL    HW211757   4.834   2.424   3.809
 3980SOL     OW11758   4.288   2.082   4.894
 3980SOL    HW111759   4.329   1.998   4.929
 3980SOL    HW211760   4.193   2.089   4.926
 3981SOL     OW11761   4.595   2.323   4.361
 3981SOL    HW111762   4.540   2.363   4.288
 3981SOL    HW211763   4.626   2.232   4.333
 3982SOL     OW11764   4.795   1.901   4.481
 3982SOL    HW111765   4.727   1.908   4.408
 3982SOL    HW211766   4.774   1.822   4.539
 3983SOL     OW11767   4.223   3.247   3.888
 3983SOL    HW111768   4.135   3.254   3.934
 3983SOL    HW211769   4.211   3.202   3.799
 3984SOL     OW11770   0.362   3.206   4.487
 3984SOL    HW111771   0.380   3.108   4.477
 3984SOL    HW211772   0.320   3.241   4.403
 3985SOL     OW11773   4.239   2.094   4.013
 3985SOL    HW111774   4.290   2.067   3.931
 3985SOL    HW211775   4.197   2.183   3.998
 3986SOL     OW11776   0.223   3.451   0.279
 3986SOL    HW111777   0.205   3.526   0.215
 3986SOL    HW211778   0.322   3.440   0.289
 3987SOL     OW11779   4.824   3.097   4.828
 3987SOL    HW111780   4.752   3.130   4.890
 3987SOL    HW211781   4.809   3.134   4.737
 3988SOL     OW11782   4.433   2.919   4.078
 3988SOL    HW111783   4.421   2.921   4.177
 3988SOL    HW211784   4.514   2.865   4.055
 3989SOL     OW11785   4.174   2.709   5.005
 3989SOL    HW111786   4.219   2.757   5.080
 3989SOL    HW211787   4.159   2.614   5.031
 3990SOL     OW11788   4.122   2.968   4.229
 3990SOL    HW111789   4.151   3.029   4.155
 3990SOL    HW211790   4.096   2.880   4.191
 3991SOL     OW11791   4.274   2.400   4.593
 3991SOL    HW111792   4.295   2.464   4.518
 3991SOL    HW211793   4.331   2.422   4.672
 3992SOL     OW11794   4.964   3.228   4.128
 3992SOL    HW111795   4.999   3.314   4.163
 3992SOL    HW211796   4.869   3.216   4.156
 3993SOL     OW11797   4.123   3.401   5.039
 3993SOL    HW111798   4.083   3.362   4.956
 3993SOL    HW211799   4.209   3.447   5.017
 3994SOL     OW11800   4.311   2.756   4.754
 3994SOL    HW111801   4.345   2.849   4.740
 3994SOL    HW211802   4.269   2.749   4.844
 3995SOL     OW11803   5.069   2.699   4.802
 3995SOL    HW111804   4.984   2.691   4.751
 3995SOL    HW211805   0.020   2.608   4.818
 3996SOL     OW11806   4.931   2.409   3.979
 3996SOL    HW111807   4.954   2.325   4.028
 3996SOL    HW211808   4.873   2.466   4.037
 3997SOL     OW11809   4.031   2.065   4.965
 3997SOL    HW111810   4.015   2.082   5.062
 3997SOL    HW211811   4.015   1.968   4.945
 3998SOL     OW11812   3.772   3.140   5.015
 3998SOL    HW111813   3.844   3.081   5.051
 3998SOL    HW211814   3.763   3.221   5.073
 3999SOL     OW11815   4.435   2.511   4.782
 3999SOL    HW111816   4.516   2.478   4.734
 3999SOL    HW211817   4.413   2.603   4.749
 4000SOL     OW11818   4.074   1.948   4.356
 4000SOL    HW111819   4.028   2.035   4.373
 4000SOL    HW211820   4.083   1.898   4.442
 4001SOL     OW11821   0.247   2.263   4.090
 4001SOL    HW111822   0.191   2.180   4.091
 4001SOL    HW211823   0.240   2.309   4.179
 4002SOL     OW11824   4.741   2.615   4.693
 4002SOL    HW111825   4.741   2.627   4.792
 4002SOL    HW211826   4.707   2.524   4.669
 4003SOL     OW11827   5.055   2.713   3.737
 4003SOL    HW111828   0.000   2.668   3.820
 4003SOL    HW211829   5.073   2.655   3.658
 4004SOL     OW11830   4.802   3.206   4.569
 4004SOL    HW111831   4.800   3.129   4.505
 4004SOL    HW211832   4.866   3.275   4.535
 4005SOL     OW11833   4.032   2.695   4.694
 4005SOL    HW111834   4.131   2.710   4.689
 4005SOL    HW211835   4.014   2.601   4.723
 4006SOL     OW11836   4.031   2.402   4.729
 4006SOL    HW111837   4.005   2.305   4.725
 4006SOL    HW211838   4.113   2.417   4.674
 4007SOL     OW11839   4.905   2.119   0.078
 4007SOL    HW111840   4.860   2.132   0.167
 4007SOL    HW211841   4.841   2.140   0.005
 4008SOL     OW11842   3.733   3.183   3.910
 4008SOL    HW111843   3.643   3.205   3.872
 4008SOL    HW211844   3.733   3.089   3.944
 4009SOL     OW11845   3.815   3.643   4.662
 4009SOL    HW111846   3.788   3.559   4.615
 4009SOL    HW211847   3.907   3.670   4.633
 4010SOL     OW11848   4.211   3.448   4.632
 4010SOL    HW111849   4.285   3.504   4.670
 4010SOL    HW211850   4.248   3.385   4.564
 4011SOL     OW11851   4.695   2.636   4.989
 4011SOL    HW111852   4.740   2.700   5.052
 4011SOL    HW211853   4.596   2.649   4.992
 4012SOL     OW11854   3.765   2.393   4.843
 4012SOL    HW111855   3.835   2.385   4.772
 4012SOL    HW211856   3.802   2.360   4.930
 4013SOL     OW11857   4.502   2.408   4.110
 4013SOL    HW111858   4.520   2.339   4.040
 4013SOL    HW211859   4.446   2.481   4.071
 4014SOL     OW11860   4.415   2.314   4.987
 4014SOL    HW111861   4.375   2.234   4.943
 4014SOL    HW211862   4.404   2.393   4.927
 4015SOL     OW11863   4.575   3.516   0.008
 4015SOL    HW111864   4.594   3.553   5.004
 4015SOL    HW211865   4.655   3.531   0.067
 4016SOL     OW11866   4.161   2.348   3.923
 4016SOL    HW111867   4.234   2.414   3.942
 4016SOL    HW211868   4.075   2.397   3.909
 4017SOL     OW11869   4.989   2.929   4.972
 4017SOL    HW111870   5.052   2.877   4.915
 4017SOL    HW211871   4.923   2.977   4.913
 4018SOL     OW11872   4.991   3.560   4.850
 4018SOL    HW111873   5.041   3.609   4.779
 4018SOL    HW211874   5.051   3.490   4.890
 4019SOL     OW11875   3.801   3.128   4.751
 4019SOL    HW111876   3.781   3.133   4.849
 4019SOL    HW211877   3.727   3.079   4.705
 4020SOL     OW11878   5.063   3.467   4.188
 4020SOL    HW111879   0.061   3.476   4.136
 4020SOL    HW211880   5.043   3.554   4.234
 4021SOL     OW11881   4.992   2.825   4.360
 4021SOL    HW111882   5.065   2.767   4.396
 4021SOL    HW211883   5.031   2.913   4.331
 4022SOL     OW11884   4.382   3.473   3.881
 4022SOL    HW111885   4.397   3.491   3.784
 4022SOL    HW211886   4.334   3.385   3.891
 4023SOL     OW11887   3.975   2.185   4.434
 4023SOL    HW111888   3.894   2.238   4.410
 4023SOL    HW211889   3.984   2.180   4.534
 4024SOL     OW11890   4.863   3.503   3.733
 4024SOL    HW111891   4.953   3.461   3.724
 4024SOL    HW211892   4.810   3.488   3.650
 4025SOL     OW11893   4.524   2.901   5.083
 4025SOL    HW111894   4.579   2.903   5.000
 4025SOL    HW211895   4.581   2.924   0.075
 4026SOL     OW11896   4.663   2.770   4.004
 4026SOL    HW111897   4.733   2.811   3.946
 4026SOL    HW211898   4.701   2.690   4.050
 4027SOL     OW11899   4.780   2.981   4.427
 4027SOL    HW111900   4.702   2.929   4.463
 4027SOL    HW211901   4.854   2.919   4.402
 4028SOL     OW11902   4.769   2.084   4.685
 4028SOL    HW111903   4.766   2.025   4.604
 4028SOL    HW211904   4.762   2.027   4.767
 4029SOL     OW11905   4.355   3.369   4.209
 4029SOL    HW111906   4.403   3.321   4.135
 4029SOL    HW211907   4.272   3.411   4.173
 4030SOL     OW11908   3.973   3.255   4.000
 4030SOL    HW111909   3.876   3.242   3.980
 4030SOL    HW211910   3.985   3.268   4.099
 4031SOL     OW11911   3.829   2.205   3.726
 4031SOL    HW111912   3.729   2.200   3.725
 4031SOL    HW211913   3.859   2.276   3.662
 4032SOL     OW11914   3.767   2.029   4.024
 4032SOL    HW111915   3.754   2.122   3.990
 4032SOL    HW211916   3.850   1.990   3.985
 4033SOL     OW11917   4.943   2.141   4.166
 4033SOL    HW111918   5.013   2.104   4.106
 4033SOL    HW211919   4.985   2.195   4.239
 4034SOL     OW11920   4.312   2.599   4.397
 4034SOL    HW111921   4.359   2.683   4.372
 4034SOL    HW211922   4.226   2.592   4.346
 4035SOL     OW11923   4.572   3.224   3.744
 4035SOL    HW111924   4.561   3.232   3.843
 4035SOL    HW211925   4.605   3.311   3.707
 4036SOL     OW11926   4.397   3.639   4.696
 4036SOL    HW111927   4.373   3.730   4.661
 4036SOL    HW211928   4.493   3.620   4.675
 4037SOL     OW11929   4.612   2.816   4.559
 4037SOL    HW111930   4.655   2.738   4.605
 4037SOL    HW211931   4.565   2.872   4.627
 4038SOL     OW11932   4.828   2.863   3.793
 4038SOL    HW111933   4.786   2.910   3.715
 4038SOL    HW211934   4.907   2.812   3.762
 4039SOL     OW11935   3.812   3.116   4.398
 4039SOL    HW111936   3.793   3.067   4.483
 4039SOL    HW211937   3.894   3.079   4.356
 4040SOL     OW11938   4.158   2.283   4.243
 4040SOL    HW111939   4.216   2.215   4.199
 4040SOL    HW211940   4.109   2.241   4.320
 4041SOL     OW11941   4.534   3.453   4.429
 4041SOL    HW111942   4.543   3.472   4.331
 4041SOL    HW211943   4.459   3.390   4.444
 4042SOL     OW11944   4.741   1.849   4.903
 4042SOL    HW111945   4.710   1.816   4.814
 4042SOL    HW211946   4.837   1.824   4.917
 4043SOL     OW11947   4.504   3.197   4.029
 4043SOL    HW111948   4.458   3.108   4.030
 4043SOL    HW211949   4.582   3.195   4.092
 4044SOL     OW11950   5.021   1.955   3.797
 4044SOL    HW111951   5.085   1.886   3.764
 4044SOL    HW211952   4.956   1.914   3.861
 4045SOL     OW11953   3.773   2.935   4.039
 4045SOL    HW111954   3.871   2.940   4.021
 4045SOL    HW211955   3.747   2.840   4.054
 4046SOL     OW11956   4.601   3.520   4.060
 4046SOL    HW111957   4.521   3.501   4.002
 4046SOL    HW211958   4.583   3.602   4.114
 4047SOL     OW11959   3.958   4.373   0.110
 4047SOL    HW111960   3.870   4.359   0.155
 4047SOL    HW211961   3.955   4.335   0.017
 4048SOL     OW11962   3.958   3.992   0.989
 4048SOL    HW111963   3.985   3.978   1.084
 4048SOL    HW211964   3.866   3.956   0.975
 4049SOL     OW11965   3.723   4.125   0.620
 4049SOL    HW111966   3.636   4.145   0.666
 4049SOL    HW211967   3.714   4.041   0.567
 4050SOL     OW11968   4.265   4.952   1.150
 4050SOL    HW111969   4.179   4.990   1.114
 4050SOL    HW211970   4.318   5.025   1.193
 4051SOL     OW11971   4.838   4.436   0.673
 4051SOL    HW111972   4.897   4.514   0.655
 4051SOL    HW211973   4.800   4.443   0.766
 4052SOL     OW11974   4.507   4.895   1.016
 4052SOL    HW111975   4.422   4.885   1.068
 4052SOL    HW211976   4.502   4.978   0.960
 4053SOL     OW11977   4.593   4.485   1.822
 4053SOL    HW111978   4.563   4.546   1.895
 4053SOL    HW211979   4.615   4.539   1.741
 4054SOL     OW11980   4.417   4.762   0.649
 4054SOL    HW111981   4.482   4.727   0.717
 4054SOL    HW211982   4.339   4.805   0.696
 4055SOL     OW11983   4.428   4.884   1.794
 4055SOL    HW111984   4.457   4.950   1.864
 4055SOL    HW211985   4.373   4.931   1.725
 4056SOL     OW11986   4.072   0.021   1.052
 4056SOL    HW111987   3.987   5.083   1.005
 4056SOL    HW211988   4.134   0.066   0.988
 4057SOL     OW11989   4.143   4.112   1.530
 4057SOL    HW111990   4.222   4.052   1.519
 4057SOL    HW211991   4.060   4.063   1.506
 4058SOL     OW11992   3.981   4.803   0.894
 4058SOL    HW111993   3.970   4.717   0.944
 4058SOL    HW211994   3.929   4.875   0.938
 4059SOL     OW11995   4.313   4.681   0.131
 4059SOL    HW111996   4.384   4.690   0.061
 4059SOL    HW211997   4.343   4.726   0.215
 4060SOL     OW11998   3.848   4.374   0.559
 4060SOL    HW111999   3.812   4.282   0.577
 4060SOL    HW212000   3.846   4.428   0.643
 4061SOL     OW12001   3.840   4.457   1.586
 4061SOL    HW112002   3.938   4.478   1.584
 4061SOL    HW212003   3.789   4.538   1.616
 4062SOL     OW12004   4.986   4.971   1.448
 4062SOL    HW112005   5.008   4.883   1.405
 4062SOL    HW212006   5.050   4.989   1.523
 4063SOL     OW12007   4.572   3.728   0.479
 4063SOL    HW112008   4.604   3.822   0.478
 4063SOL    HW212009   4.474   3.726   0.496
 4064SOL     OW12010   3.915   4.673   1.251
 4064SOL    HW112011   4.002   4.625   1.242
 4064SOL    HW212012   3.840   4.611   1.232
 4065SOL     OW12013   4.059   3.958   1.814
 4065SOL    HW112014   4.125   4.033   1.812
 4065SOL    HW212015   3.971   3.993   1.846
 4066SOL     OW12016   4.318   4.439   0.298
 4066SOL    HW112017   4.321   4.523   0.244
 4066SOL    HW212018   4.242   4.444   0.364
 4067SOL     OW12019   5.021   4.040   0.926
 4067SOL    HW112020   4.926   4.010   0.925
 4067SOL    HW212021   5.054   4.045   1.020
 4068SOL     OW12022   4.546   4.329   1.454
 4068SOL    HW112023   4.511   4.303   1.544
 4068SOL    HW212024   4.490   4.287   1.383
 4069SOL     OW12025   4.679   4.610   1.584
 4069SOL    HW112026   4.733   4.533   1.549
 4069SOL    HW212027   4.636   4.658   1.508
 4070SOL     OW12028   4.746   4.116   1.256
 4070SOL    HW112029   4.667   4.141   1.312
 4070SOL    HW212030   4.715   4.100   1.162
 4071SOL     OW12031   4.731   4.430   0.428
 4071SOL    HW112032   4.764   4.433   0.523
 4071SOL    HW212033   4.649   4.374   0.422
 4072SOL     OW12034   3.833   4.547   0.772
 4072SOL    HW112035   3.909   4.528   0.835
 4072SOL    HW212036   3.787   4.632   0.800
 4073SOL     OW12037   4.595   4.067   0.222
 4073SOL    HW112038   4.628   4.132   0.154
 4073SOL    HW212039   4.583   3.977   0.179
 4074SOL     OW12040   4.301   3.925   0.889
 4074SOL    HW112041   4.290   3.933   0.989
 4074SOL    HW212042   4.302   4.016   0.849
 4075SOL     OW12043   4.047   4.636   0.234
 4075SOL    HW112044   4.139   4.665   0.206
 4075SOL    HW212045   4.025   4.549   0.191
 4076SOL     OW12046   3.891   4.002   1.493
 4076SOL    HW112047   3.817   4.056   1.534
 4076SOL    HW212048   3.877   3.905   1.512
 4077SOL     OW12049   4.119   4.407   0.479
 4077SOL    HW112050   4.149   4.312   0.489
 4077SOL    HW212051   4.021   4.413   0.494
 4078SOL     OW12052   4.493   3.997   1.731
 4078SOL    HW112053   4.578   3.944   1.735
 4078SOL    HW212054   4.433   3.970   1.805
 4079SOL     OW12055   4.470   0.055   0.904
 4079SOL    HW112056   4.540   0.075   0.835
 4079SOL    HW212057   4.389   0.112   0.887
 4080SOL     OW12058   4.663   4.222   0.912
 4080SOL    HW112059   4.641   4.221   0.815
 4080SOL    HW212060   4.700   4.133   0.939
 4081SOL     OW12061   4.298   3.781   0.475
 4081SOL    HW112062   4.226   3.774   0.543
 4081SOL    HW212063   4.282   3.860   0.416
 4082SOL     OW12064   4.014   3.825   0.217
 4082SOL    HW112065   4.086   3.894   0.221
 4082SOL    HW212066   4.054   3.734   0.226
 4083SOL     OW12067   4.651   3.979   0.477
 4083SOL    HW112068   4.613   4.013   0.391
 4083SOL    HW212069   4.749   3.997   0.479
 4084SOL     OW12070   4.809   4.397   1.465
 4084SOL    HW112071   4.716   4.360   1.468
 4084SOL    HW212072   4.872   4.331   1.505
 4085SOL     OW12073   4.987   0.181   0.714
 4085SOL    HW112074   4.897   0.139   0.707
 4085SOL    HW212075   5.025   0.164   0.805
 4086SOL     OW12076   4.188   4.902   0.752
 4086SOL    HW112077   4.123   4.862   0.817
 4086SOL    HW212078   4.160   4.880   0.659
 4087SOL     OW12079   4.726   4.247   0.048
 4087SOL    HW112080   4.708   4.330   5.082
 4087SOL    HW212081   4.800   4.265   0.113
 4088SOL     OW12082   3.786   4.282   1.392
 4088SOL    HW112083   3.882   4.265   1.370
 4088SOL    HW212084   3.779   4.354   1.461
 4089SOL     OW12085   4.290   3.952   1.170
 4089SOL    HW112086   4.340   3.870   1.197
 4089SOL    HW212087   4.196   3.948   1.204
 4090SOL     OW12088   4.611   4.174   0.660
 4090SOL    HW112089   4.563   4.236   0.597
 4090SOL    HW212090   4.621   4.084   0.617
 4091SOL     OW12091   4.790   3.768   0.736
 4091SOL    HW112092   4.719   3.788   0.669
 4091SOL    HW212093   4.760   3.693   0.795
 4092SOL     OW12094   4.234   3.969   0.293
 4092SOL    HW112095   4.281   3.922   0.218
 4092SOL    HW212096   4.213   4.063   0.267
 4093SOL     OW12097   4.651   3.854   1.408
 4093SOL    HW112098   4.662   3.823   1.313
 4093SOL    HW212099   4.734   3.898   1.439
 4094SOL     OW12100   4.704   4.832   1.740
 4094SOL    HW112101   4.610   4.858   1.761
 4094SOL    HW212102   4.703   4.752   1.679
 4095SOL     OW12103   4.422   4.773   0.359
 4095SOL    HW112104   4.410   4.769   0.458
 4095SOL    HW212105   4.508   4.727   0.334
 4096SOL     OW12106   4.155   4.534   1.259
 4096SOL    HW112107   4.222   4.543   1.333
 4096SOL    HW212108   4.108   4.447   1.267
 4097SOL     OW12109   5.021   4.081   1.243
 4097SOL    HW112110   5.070   4.149   1.298
 4097SOL    HW212111   4.924   4.105   1.240
 4098SOL     OW12112   4.118   4.827   0.494
 4098SOL    HW112113   4.162   4.892   0.432
 4098SOL    HW212114   4.098   4.743   0.445
 4099SOL     OW12115   4.272   4.269   0.886
 4099SOL    HW112116   4.283   4.333   0.810
 4099SOL    HW212117   4.333   4.295   0.961
 4100SOL     OW12118   4.919   5.058   0.405
 4100SOL    HW112119   5.006   0.013   0.430
 4100SOL    HW212120   4.851   5.078   0.475
 4101SOL     OW12121   4.140   4.458   1.607
 4101SOL    HW112122   4.212   4.509   1.558
 4101SOL    HW212123   4.165   4.361   1.611
 4102SOL     OW12124   4.715   3.832   1.762
 4102SOL    HW112125   4.790   3.897   1.773
 4102SOL    HW212126   4.750   3.750   1.717
 4103SOL     OW12127   4.211   3.742   1.739
 4103SOL    HW112128   4.166   3.680   1.675
 4103SOL    HW212129   4.151   3.820   1.758
 4104SOL     OW12130   4.304   4.615   1.043
 4104SOL    HW112131   4.316   4.714   1.040
 4104SOL    HW212132   4.248   4.590   1.122
 4105SOL     OW12133   5.076   4.581   1.043
 4105SOL    HW112134   4.987   4.567   0.998
 4105SOL    HW212135   0.029   4.492   1.065
 4106SOL     OW12136   4.903   4.261   0.273
 4106SOL    HW112137   4.913   4.184   0.336
 4106SOL    HW212138   4.855   4.336   0.319
 4107SOL     OW12139   4.026   3.933   1.243
 4107SOL    HW112140   3.980   3.969   1.324
 4107SOL    HW212141   4.004   3.836   1.233
 4108SOL     OW12142   4.449   4.382   1.065
 4108SOL    HW112143   4.523   4.363   1.000
 4108SOL    HW212144   4.408   4.470   1.043
 4109SOL     OW12145   4.059   3.799   0.612
 4109SOL    HW112146   4.021   3.890   0.629
 4109SOL    HW212147   4.060   3.747   0.697
 4110SOL     OW12148   0.237   4.159   0.359
 4110SOL    HW112149   0.280   4.080   0.403
 4110SOL    HW212150   0.215   4.227   0.429
 4111SOL     OW12151   4.745   4.481   0.955
 4111SOL    HW112152   4.738   4.506   1.051
 4111SOL    HW212153   4.723   4.384   0.944
 4112SOL     OW12154   4.073   4.626   1.806
 4112SOL    HW112155   4.153   4.658   1.857
 4112SOL    HW212156   4.101   4.553   1.743
 4113SOL     OW12157   5.005   4.505   0.033
 4113SOL    HW112158   0.000   4.471   0.079
 4113SOL    HW212159   5.031   4.572   5.050
 4114SOL     OW12160   4.013   4.515   0.985
 4114SOL    HW112161   4.108   4.545   0.983
 4114SOL    HW212162   4.009   4.417   1.007
 4115SOL     OW12163   4.046   4.239   1.021
 4115SOL    HW112164   4.014   4.146   1.004
 4115SOL    HW212165   4.125   4.260   0.963
 4116SOL     OW12166   4.874   4.103   1.685
 4116SOL    HW112167   4.805   4.143   1.747
 4116SOL    HW212168   4.964   4.137   1.710
 4117SOL     OW12169   4.899   3.936   1.470
 4117SOL    HW112170   4.895   4.008   1.539
 4117SOL    HW212171   4.950   3.970   1.390
 4118SOL     OW12172   4.705   4.522   1.217
 4118SOL    HW112173   4.774   4.497   1.284
 4118SOL    HW212174   4.619   4.475   1.237
 4119SOL     OW12175   3.750   4.254   1.109
 4119SOL    HW112176   3.835   4.238   1.058
 4119SOL    HW212177   3.770   4.264   1.206
 4120SOL     OW12178   3.953   4.232   1.713
 4120SOL    HW112179   4.013   4.187   1.647
 4120SOL    HW212180   3.901   4.305   1.668
 4121SOL     OW12181   4.511   4.276   0.406
 4121SOL    HW112182   4.529   4.208   0.335
 4121SOL    HW212183   4.441   4.339   0.374
 4122SOL     OW12184   4.403   4.205   1.267
 4122SOL    HW112185   4.361   4.122   1.231
 4122SOL    HW212186   4.410   4.273   1.194
 4123SOL     OW12187   4.176   4.211   0.190
 4123SOL    HW112188   4.250   4.269   0.225
 4123SOL    HW212189   4.095   4.267   0.174
 4124SOL     OW12190   3.915   4.845   1.474
 4124SOL    HW112191   3.885   4.797   1.556
 4124SOL    HW212192   3.921   4.780   1.398
 4125SOL     OW12193   5.003   4.775   1.247
 4125SOL    HW112194   5.054   4.727   1.176
 4125SOL    HW212195   4.934   4.834   1.205
 4126SOL     OW12196   3.822   4.982   1.003
 4126SOL    HW112197   3.806   4.994   1.101
 4126SOL    HW212198   3.758   4.915   0.967
 4127SOL     OW12199   4.610   3.808   0.125
 4127SOL    HW112200   4.666   3.811   0.042
 4127SOL    HW212201   4.652   3.746   0.191
 4128SOL     OW12202   5.003   4.675   0.632
 4128SOL    HW112203   0.001   4.624   0.648
 4128SOL    HW212204   5.026   4.767   0.598
 4129SOL     OW12205   4.509   4.983   1.440
 4129SOL    HW112206   4.555   5.069   1.464
 4129SOL    HW212207   4.410   4.997   1.443
 4130SOL     OW12208   3.974   4.044   0.696
 4130SOL    HW112209   3.884   4.083   0.676
 4130SOL    HW212210   3.990   4.045   0.795
 4131SOL     OW12211   4.563   4.732   1.373
 4131SOL    HW112212   4.606   4.722   1.283
 4131SOL    HW212213   4.553   4.829   1.395
 4132SOL     OW12214   4.652   4.649   0.282
 4132SOL    HW112215   4.721   4.675   0.216
 4132SOL    HW212216   4.687   4.576   0.340
 4133SOL     OW12217   4.124   5.013   1.526
 4133SOL    HW112218   4.074   0.012   1.513
 4133SOL    HW212219   4.064   4.936   1.505
 4134SOL     OW12220   4.792   4.845   0.744
 4134SOL    HW112221   4.708   4.794   0.764
 4134SOL    HW212222   4.857   4.785   0.697
 4135SOL     OW12223   4.758   3.947   0.962
 4135SOL    HW112224   4.754   3.901   0.874
 4135SOL    HW212225   4.755   3.879   1.035
 4136SOL     OW12226   3.844   4.716   1.702
 4136SOL    HW112227   3.769   4.716   1.767
 4136SOL    HW212228   3.928   4.687   1.747
 4137SOL     OW12229   4.396   3.915   1.487
 4137SOL    HW112230   4.481   3.899   1.437
 4137SOL    HW212231   4.417   3.950   1.578
 4138SOL     OW12232   0.047   4.587   1.406
 4138SOL    HW112233   5.052   4.635   1.373
 4138SOL    HW212234   0.125   4.610   1.348
 4139SOL     OW12235   3.769   3.893   0.317
 4139SOL    HW112236   3.741   3.981   0.279
 4139SOL    HW212237   3.863   3.873   0.291
 4140SOL     OW12238   4.355   4.551   1.446
 4140SOL    HW112239   4.411   4.632   1.425
 4140SOL    HW212240   4.416   4.473   1.464
 4141SOL     OW12241   4.445   4.280   1.688
 4141SOL    HW112242   4.486   4.342   1.755
 4141SOL    HW212243   4.463   4.185   1.715
 4142SOL     OW12244   0.103   5.028   1.629
 4142SOL    HW112245   0.093   4.996   1.723
 4142SOL    HW212246   0.160   4.964   1.578
 4143SOL     OW12247   4.916   4.027   0.461
 4143SOL    HW112248   4.991   3.988   0.408
 4143SOL    HW212249   4.952   4.079   0.538
 4144SOL     OW12250   4.300   4.458   0.680
 4144SOL    HW112251   4.368   4.528   0.660
 4144SOL    HW212252   4.236   4.451   0.604
 4145SOL     OW12253   4.589   4.672   0.842
 4145SOL    HW112254   4.644   4.600   0.885
 4145SOL    HW212255   4.568   4.743   0.909
 4146SOL     OW12256   4.828   4.713   0.094
 4146SOL    HW112257   4.755   4.721   0.026
 4146SOL    HW212258   4.894   4.645   0.064
 4147SOL     OW12259   3.803   4.984   0.644
 4147SOL    HW112260   3.828   4.903   0.699
 4147SOL    HW212261   3.884   5.015   0.593
 4148SOL     OW12262   4.163   4.139   0.509
 4148SOL    HW112263   4.196   4.062   0.454
 4148SOL    HW212264   4.109   4.104   0.587
 4149SOL     OW12265   4.054   4.268   1.298
 4149SOL    HW112266   4.122   4.222   1.355
 4149SOL    HW212267   4.063   4.235   1.203
 4150SOL     OW12268   4.740   3.731   1.149
 4150SOL    HW112269   4.680   3.668   1.100
 4150SOL    HW212270   4.833   3.692   1.153
 4151SOL     OW12271   4.537   5.024   0.301
 4151SOL    HW112272   4.467   4.956   0.326
 4151SOL    HW212273   4.585   5.054   0.383
 4152SOL     OW12274   3.718   4.784   0.330
 4152SOL    HW112275   3.804   4.810   0.286
 4152SOL    HW212276   3.728   4.694   0.372
 4153SOL     OW12277   3.951   4.368   1.998
 4153SOL    HW112278   3.860   4.344   2.030
 4153SOL    HW212279   3.963   4.338   1.903
 4154SOL     OW12280   3.941   4.006   2.866
 4154SOL    HW112281   3.972   3.980   2.957
 4154SOL    HW212282   3.855   3.959   2.845
 4155SOL     OW12283   3.723   4.127   2.480
 4155SOL    HW112284   3.642   4.155   2.532
 4155SOL    HW212285   3.706   4.037   2.440
 4156SOL     OW12286   4.277   4.947   3.017
 4156SOL    HW112287   4.195   4.981   2.971
 4156SOL    HW212288   4.329   5.025   3.051
 4157SOL     OW12289   4.846   4.425   2.556
 4157SOL    HW112290   4.890   4.510   2.527
 4157SOL    HW212291   4.807   4.438   2.648
 4158SOL     OW12292   4.517   4.893   2.881
 4158SOL    HW112293   4.432   4.881   2.932
 4158SOL    HW212294   4.510   4.974   2.823
 4159SOL     OW12295   4.598   4.483   3.692
 4159SOL    HW112296   4.562   4.545   3.762
 4159SOL    HW212297   4.616   4.535   3.609
 4160SOL     OW12298   4.392   4.728   2.536
 4160SOL    HW112299   4.467   4.707   2.600
 4160SOL    HW212300   4.331   4.796   2.577
 4161SOL     OW12301   4.433   4.885   3.658
 4161SOL    HW112302   4.454   4.948   3.732
 4161SOL    HW212303   4.388   4.935   3.583
 4162SOL     OW12304   4.083   0.011   2.892
 4162SOL    HW112305   3.992   5.083   2.853
 4162SOL    HW212306   4.141   0.059   2.826
 4163SOL     OW12307   4.142   4.110   3.403
 4163SOL    HW112308   4.222   4.054   3.383
 4163SOL    HW212309   4.060   4.063   3.372
 4164SOL     OW12310   3.989   4.811   2.764
 4164SOL    HW112311   3.993   4.728   2.821
 4164SOL    HW212312   3.926   4.876   2.806
 4165SOL     OW12313   4.305   4.716   1.983
 4165SOL    HW112314   4.350   4.764   1.907
 4165SOL    HW212315   4.340   4.750   2.070
 4166SOL     OW12316   3.849   4.374   2.429
 4166SOL    HW112317   3.814   4.281   2.443
 4166SOL    HW212318   3.845   4.424   2.516
 4167SOL     OW12319   3.832   4.452   3.454
 4167SOL    HW112320   3.926   4.487   3.461
 4167SOL    HW212321   3.767   4.528   3.466
 4168SOL     OW12322   4.995   4.979   3.303
 4168SOL    HW112323   5.013   4.884   3.277
 4168SOL    HW212324   5.054   5.004   3.380
 4169SOL     OW12325   4.557   3.724   2.349
 4169SOL    HW112326   4.601   3.813   2.343
 4169SOL    HW212327   4.458   3.736   2.352
 4170SOL     OW12328   3.910   4.670   3.116
 4170SOL    HW112329   3.995   4.619   3.107
 4170SOL    HW212330   3.833   4.612   3.092
 4171SOL     OW12331   4.065   3.955   3.671
 4171SOL    HW112332   4.127   4.033   3.661
 4171SOL    HW212333   3.974   3.988   3.697
 4172SOL     OW12334   4.307   4.437   2.130
 4172SOL    HW112335   4.312   4.528   2.087
 4172SOL    HW212336   4.235   4.437   2.200
 4173SOL     OW12337   5.023   4.046   2.767
 4173SOL    HW112338   4.931   4.009   2.782
 4173SOL    HW212339   5.062   4.075   2.854
 4174SOL     OW12340   4.556   4.320   3.306
 4174SOL    HW112341   4.522   4.299   3.397
 4174SOL    HW212342   4.495   4.281   3.237
 4175SOL     OW12343   4.679   4.608   3.441
 4175SOL    HW112344   4.736   4.533   3.410
 4175SOL    HW212345   4.636   4.653   3.362
 4176SOL     OW12346   4.744   4.105   3.115
 4176SOL    HW112347   4.664   4.143   3.160
 4176SOL    HW212348   4.718   4.067   3.027
 4177SOL     OW12349   4.746   4.410   2.293
 4177SOL    HW112350   4.778   4.413   2.388
 4177SOL    HW212351   4.659   4.362   2.289
 4178SOL     OW12352   3.828   4.541   2.656
 4178SOL    HW112353   3.911   4.542   2.712
 4178SOL    HW212354   3.768   4.616   2.685
 4179SOL     OW12355   4.610   4.068   2.092
 4179SOL    HW112356   4.674   4.116   2.033
 4179SOL    HW212357   4.560   3.999   2.039
 4180SOL     OW12358   4.275   3.928   2.759
 4180SOL    HW112359   4.278   3.935   2.858
 4180SOL    HW212360   4.272   4.020   2.719
 4181SOL     OW12361   4.033   4.640   2.099
 4181SOL    HW112362   4.119   4.667   2.057
 4181SOL    HW212363   4.003   4.552   2.064
 4182SOL     OW12364   3.893   3.998   3.353
 4182SOL    HW112365   3.821   4.058   3.390
 4182SOL    HW212366   3.873   3.903   3.378
 4183SOL     OW12367   4.119   4.400   2.327
 4183SOL    HW112368   4.146   4.308   2.355
 4183SOL    HW212369   4.021   4.412   2.343
 4184SOL     OW12370   4.360   3.845   1.941
 4184SOL    HW112371   4.429   3.782   1.976
 4184SOL    HW212372   4.303   3.798   1.873
 4185SOL     OW12373   4.495   4.004   3.595
 4185SOL    HW112374   4.578   3.948   3.594
 4185SOL    HW212375   4.436   3.975   3.670
 4186SOL     OW12376   4.472   0.055   2.779
 4186SOL    HW112377   4.544   0.074   2.712
 4186SOL    HW212378   4.390   0.105   2.754
 4187SOL     OW12379   4.672   4.214   2.781
 4187SOL    HW112380   4.649   4.222   2.684
 4187SOL    HW212381   4.707   4.122   2.800
 4188SOL     OW12382   4.284   3.775   2.349
 4188SOL    HW112383   4.212   3.783   2.417
 4188SOL    HW212384   4.278   3.852   2.285
 4189SOL     OW12385   0.057   4.894   1.869
 4189SOL    HW112386   0.096   4.840   1.943
 4189SOL    HW212387   5.066   4.947   1.903
 4190SOL     OW12388   4.000   3.766   2.049
 4190SOL    HW112389   4.049   3.846   2.016
 4190SOL    HW212390   4.064   3.703   2.092
 4191SOL     OW12391   4.666   3.968   2.351
 4191SOL    HW112392   4.624   4.010   2.271
 4191SOL    HW212393   4.766   3.973   2.343
 4192SOL     OW12394   4.810   4.397   3.335
 4192SOL    HW112395   4.719   4.355   3.337
 4192SOL    HW212396   4.879   4.328   3.357
 4193SOL     OW12397   4.977   0.181   2.589
 4193SOL    HW112398   4.890   0.133   2.581
 4193SOL    HW212399   5.019   0.159   2.677
 4194SOL     OW12400   4.187   4.917   2.619
 4194SOL    HW112401   4.118   4.872   2.677
 4194SOL    HW212402   4.167   4.897   2.523
 4195SOL     OW12403   4.766   4.244   1.896
 4195SOL    HW112404   4.714   4.328   1.881
 4195SOL    HW212405   4.836   4.261   1.965
 4196SOL     OW12406   3.795   4.275   3.255
 4196SOL    HW112407   3.892   4.262   3.237
 4196SOL    HW212408   3.784   4.348   3.323
 4197SOL     OW12409   4.293   3.943   3.032
 4197SOL    HW112410   4.346   3.863   3.061
 4197SOL    HW212411   4.200   3.935   3.068
 4198SOL     OW12412   4.603   4.184   2.523
 4198SOL    HW112413   4.548   4.236   2.458
 4198SOL    HW212414   4.621   4.093   2.486
 4199SOL     OW12415   4.775   3.784   2.613
 4199SOL    HW112416   4.722   3.791   2.529
 4199SOL    HW212417   4.747   3.702   2.663
 4200SOL     OW12418   4.247   3.960   2.167
 4200SOL    HW112419   4.286   3.921   2.084
 4200SOL    HW212420   4.212   4.052   2.148
 4201SOL     OW12421   4.638   3.849   3.258
 4201SOL    HW112422   4.655   3.814   3.166
 4201SOL    HW212423   4.721   3.891   3.294
 4202SOL     OW12424   4.710   4.828   3.604
 4202SOL    HW112425   4.617   4.855   3.628
 4202SOL    HW212426   4.707   4.748   3.545
 4203SOL     OW12427   4.412   4.801   2.212
 4203SOL    HW112428   4.386   4.788   2.308
 4203SOL    HW212429   4.495   4.748   2.194
 4204SOL     OW12430   4.157   4.531   3.123
 4204SOL    HW112431   4.228   4.542   3.193
 4204SOL    HW212432   4.111   4.444   3.136
 4205SOL     OW12433   5.020   4.084   3.121
 4205SOL    HW112434   5.071   4.155   3.169
 4205SOL    HW212435   4.925   4.112   3.109
 4206SOL     OW12436   4.122   4.829   2.362
 4206SOL    HW112437   4.132   4.910   2.304
 4206SOL    HW212438   4.103   4.749   2.305
 4207SOL     OW12439   4.291   4.268   2.736
 4207SOL    HW112440   4.309   4.321   2.653
 4207SOL    HW212441   4.349   4.301   2.810
 4208SOL     OW12442   4.900   5.035   2.292
 4208SOL    HW112443   4.982   0.005   2.300
 4208SOL    HW212444   4.835   5.061   2.363
 4209SOL     OW12445   4.138   4.468   3.467
 4209SOL    HW112446   4.212   4.506   3.411
 4209SOL    HW212447   4.160   4.373   3.491
 4210SOL     OW12448   4.713   3.837   3.621
 4210SOL    HW112449   4.791   3.900   3.626
 4210SOL    HW212450   4.743   3.751   3.579
 4211SOL     OW12451   4.212   3.741   3.601
 4211SOL    HW112452   4.166   3.682   3.534
 4211SOL    HW212453   4.151   3.816   3.626
 4212SOL     OW12454   4.299   4.614   2.914
 4212SOL    HW112455   4.306   4.713   2.912
 4212SOL    HW212456   4.246   4.585   2.993
 4213SOL     OW12457   5.065   4.575   2.908
 4213SOL    HW112458   4.972   4.555   2.879
 4213SOL    HW212459   0.026   4.490   2.931
 4214SOL     OW12460   4.935   4.255   2.140
 4214SOL    HW112461   4.928   4.173   2.196
 4214SOL    HW212462   4.894   4.333   2.188
 4215SOL     OW12463   4.034   3.915   3.113
 4215SOL    HW112464   3.985   3.955   3.191
 4215SOL    HW212465   4.001   3.822   3.098
 4216SOL     OW12466   4.466   4.385   2.940
 4216SOL    HW112467   4.535   4.355   2.873
 4216SOL    HW212468   4.425   4.471   2.909
 4217SOL     OW12469   4.032   3.796   2.474
 4217SOL    HW112470   3.997   3.886   2.497
 4217SOL    HW212471   4.041   3.741   2.558
 4218SOL     OW12472   0.269   4.128   2.220
 4218SOL    HW112473   0.198   4.058   2.215
 4218SOL    HW212474   0.243   4.196   2.289
 4219SOL     OW12475   4.757   4.467   2.838
 4219SOL    HW112476   4.745   4.484   2.935
 4219SOL    HW212477   4.733   4.372   2.817
 4220SOL     OW12478   4.068   4.627   3.670
 4220SOL    HW112479   4.146   4.660   3.723
 4220SOL    HW212480   4.099   4.562   3.601
 4221SOL     OW12481   5.049   4.559   1.887
 4221SOL    HW112482   0.012   4.497   1.948
 4221SOL    HW212483   0.016   4.575   1.805
 4222SOL     OW12484   4.027   4.532   2.856
 4222SOL    HW112485   4.124   4.558   2.855
 4222SOL    HW212486   4.020   4.434   2.871
 4223SOL     OW12487   4.061   4.246   2.877
 4223SOL    HW112488   4.021   4.155   2.866
 4223SOL    HW212489   4.139   4.256   2.815
 4224SOL     OW12490   4.876   4.107   3.554
 4224SOL    HW112491   4.808   4.144   3.618
 4224SOL    HW212492   4.963   4.155   3.566
 4225SOL     OW12493   4.891   3.930   3.338
 4225SOL    HW112494   4.887   4.003   3.406
 4225SOL    HW212495   4.942   3.961   3.258
 4226SOL     OW12496   3.714   5.052   2.031
 4226SOL    HW112497   3.634   5.064   1.972
 4226SOL    HW212498   3.714   4.960   2.069
 4227SOL     OW12499   4.708   4.495   3.098
 4227SOL    HW112500   4.756   4.456   3.176
 4227SOL    HW212501   4.612   4.466   3.100
 4228SOL     OW12502   3.753   4.258   2.975
 4228SOL    HW112503   3.833   4.235   2.920
 4228SOL    HW212504   3.780   4.266   3.071
 4229SOL     OW12505   3.955   4.234   3.567
 4229SOL    HW112506   4.019   4.192   3.503
 4229SOL    HW212507   3.902   4.305   3.520
 4230SOL     OW12508   4.506   4.281   2.259
 4230SOL    HW112509   4.534   4.210   2.194
 4230SOL    HW212510   4.438   4.340   2.216
 4231SOL     OW12511   4.396   4.203   3.131
 4231SOL    HW112512   4.357   4.119   3.094
 4231SOL    HW212513   4.408   4.269   3.056
 4232SOL     OW12514   4.168   4.205   2.067
 4232SOL    HW112515   4.239   4.275   2.077
 4232SOL    HW212516   4.079   4.250   2.058
 4233SOL     OW12517   3.916   4.846   3.338
 4233SOL    HW112518   3.883   4.799   3.420
 4233SOL    HW212519   3.923   4.781   3.263
 4234SOL     OW12520   5.019   4.764   3.120
 4234SOL    HW112521   5.048   4.724   3.032
 4234SOL    HW212522   4.937   4.820   3.106
 4235SOL     OW12523   3.811   4.983   2.852
 4235SOL    HW112524   3.802   4.994   2.951
 4235SOL    HW212525   3.743   4.918   2.819
 4236SOL     OW12526   4.997   4.689   2.516
 4236SOL    HW112527   5.080   4.635   2.528
 4236SOL    HW212528   5.021   4.778   2.475
 4237SOL     OW12529   4.524   4.979   3.296
 4237SOL    HW112530   4.562   5.067   3.324
 4237SOL    HW212531   4.425   4.989   3.280
 4238SOL     OW12532   3.964   4.041   2.573
 4238SOL    HW112533   3.877   4.081   2.544
 4238SOL    HW212534   3.970   4.043   2.673
 4239SOL     OW12535   4.934   0.205   1.905
 4239SOL    HW112536   4.963   0.125   1.958
 4239SOL    HW212537   4.851   0.183   1.853
 4240SOL     OW12538   4.560   4.725   3.229
 4240SOL    HW112539   4.614   4.720   3.145
 4240SOL    HW212540   4.550   4.821   3.256
 4241SOL     OW12541   4.633   4.636   2.138
 4241SOL    HW112542   4.703   4.666   2.073
 4241SOL    HW212543   4.669   4.562   2.194
 4242SOL     OW12544   4.129   5.006   3.390
 4242SOL    HW112545   4.086   0.009   3.381
 4242SOL    HW212546   4.060   4.935   3.374
 4243SOL     OW12547   4.782   4.848   2.608
 4243SOL    HW112548   4.703   4.791   2.630
 4243SOL    HW212549   4.855   4.792   2.569
 4244SOL     OW12550   4.768   3.949   2.840
 4244SOL    HW112551   4.758   3.906   2.750
 4244SOL    HW212552   4.769   3.878   2.910
 4245SOL     OW12553   3.840   4.721   3.564
 4245SOL    HW112554   3.764   4.715   3.629
 4245SOL    HW212555   3.924   4.688   3.608
 4246SOL     OW12556   4.388   3.917   3.359
 4246SOL    HW112557   4.470   3.903   3.304
 4246SOL    HW212558   4.413   3.949   3.450
 4247SOL     OW12559   3.815   4.070   1.876
 4247SOL    HW112560   3.719   4.059   1.854
 4247SOL    HW212561   3.856   4.137   1.813
 4248SOL     OW12562   0.056   4.574   3.263
 4248SOL    HW112563   5.071   4.631   3.225
 4248SOL    HW212564   0.143   4.595   3.218
 4249SOL     OW12565   3.767   3.890   2.159
 4249SOL    HW112566   3.759   3.983   2.124
 4249SOL    HW212567   3.848   3.846   2.120
 4250SOL     OW12568   4.361   4.543   3.295
 4250SOL    HW112569   4.417   4.623   3.274
 4250SOL    HW212570   4.419   4.466   3.320
 4251SOL     OW12571   4.457   4.283   3.545
 4251SOL    HW112572   4.497   4.340   3.617
 4251SOL    HW212573   4.464   4.187   3.570
 4252SOL     OW12574   0.103   5.034   3.502
 4252SOL    HW112575   0.091   4.994   3.594
 4252SOL    HW212576   0.160   4.973   3.447
 4253SOL     OW12577   4.930   3.993   2.312
 4253SOL    HW112578   5.000   3.960   2.248
 4253SOL    HW212579   4.972   4.057   2.377
 4254SOL     OW12580   4.321   4.449   2.517
 4254SOL    HW112581   4.362   4.540   2.515
 4254SOL    HW212582   4.243   4.447   2.454
 4255SOL     OW12583   4.601   4.666   2.717
 4255SOL    HW112584   4.650   4.594   2.765
 4255SOL    HW212585   4.579   4.740   2.781
 4256SOL     OW12586   4.822   4.715   1.948
 4256SOL    HW112587   4.791   4.767   1.869
 4256SOL    HW212588   4.902   4.661   1.923
 4257SOL     OW12589   3.788   4.986   2.517
 4257SOL    HW112590   3.827   4.908   2.566
 4257SOL    HW212591   3.856   5.022   2.453
 4258SOL     OW12592   4.166   4.142   2.403
 4258SOL    HW112593   4.201   4.068   2.345
 4258SOL    HW212594   4.112   4.103   2.477
 4259SOL     OW12595   4.061   4.266   3.157
 4259SOL    HW112596   4.136   4.225   3.208
 4259SOL    HW212597   4.068   4.239   3.061
 4260SOL     OW12598   4.743   3.724   3.021
 4260SOL    HW112599   4.680   3.665   2.970
 4260SOL    HW212600   4.833   3.680   3.026
 4261SOL     OW12601   4.489   5.058   2.114
 4261SOL    HW112602   4.434   4.983   2.150
 4261SOL    HW212603   4.567   5.074   2.174
 4262SOL     OW12604   5.004   3.791   1.970
 4262SOL    HW112605   5.070   3.728   1.929
 4262SOL    HW212606   4.941   3.740   2.029
 4263SOL     OW12607   3.751   4.805   2.135
 4263SOL    HW112608   3.848   4.816   2.113
 4263SOL    HW212609   3.733   4.709   2.156
 4264SOL     OW12610   3.946   4.372   3.849
 4264SOL    HW112611   3.854   4.351   3.880
 4264SOL    HW212612   3.957   4.342   3.755
 4265SOL     OW12613   3.936   4.017   4.716
 4265SOL    HW112614   3.974   3.990   4.805
 4265SOL    HW212615   3.851   3.967   4.700
 4266SOL     OW12616   3.720   4.134   4.327
 4266SOL    HW112617   3.636   4.150   4.378
 4266SOL    HW212618   3.729   4.036   4.307
 4267SOL     OW12619   4.292   4.968   4.936
 4267SOL    HW112620   4.202   4.973   4.892
 4267SOL    HW212621   4.316   5.058   4.972
 4268SOL     OW12622   4.863   4.439   4.418
 4268SOL    HW112623   4.905   4.527   4.396
 4268SOL    HW212624   4.810   4.447   4.502
 4269SOL     OW12625   4.492   4.873   4.748
 4269SOL    HW112626   4.419   4.895   4.814
 4269SOL    HW212627   4.516   4.955   4.697
 4270SOL     OW12628   4.390   4.749   4.388
 4270SOL    HW112629   4.448   4.715   4.462
 4270SOL    HW212630   4.316   4.805   4.427
 4271SOL     OW12631   4.066   0.041   4.778
 4271SOL    HW112632   3.981   0.005   4.742
 4271SOL    HW212633   4.127   0.066   4.702
 4272SOL     OW12634   3.994   4.832   4.647
 4272SOL    HW112635   3.996   4.738   4.681
 4272SOL    HW212636   3.917   4.880   4.689
 4273SOL     OW12637   4.303   4.717   3.840
 4273SOL    HW112638   4.348   4.768   3.766
 4273SOL    HW212639   4.336   4.751   3.928
 4274SOL     OW12640   3.849   4.369   4.286
 4274SOL    HW112641   3.807   4.280   4.301
 4274SOL    HW212642   3.845   4.422   4.371
 4275SOL     OW12643   4.572   3.727   4.228
 4275SOL    HW112644   4.612   3.817   4.216
 4275SOL    HW212645   4.472   3.734   4.230
 4276SOL     OW12646   3.925   4.732   4.966
 4276SOL    HW112647   4.016   4.691   4.972
 4276SOL    HW212648   3.856   4.661   4.979
 4277SOL     OW12649   4.303   4.432   3.999
 4277SOL    HW112650   4.311   4.523   3.957
 4277SOL    HW212651   4.228   4.432   4.065
 4278SOL     OW12652   5.019   4.030   4.634
 4278SOL    HW112653   4.924   4.008   4.657
 4278SOL    HW212654   5.069   4.054   4.717
 4279SOL     OW12655   4.704   4.045   4.967
 4279SOL    HW112656   4.699   4.128   5.023
 4279SOL    HW212657   4.634   4.049   4.896
 4280SOL     OW12658   4.739   4.404   4.159
 4280SOL    HW112659   4.781   4.415   4.249
 4280SOL    HW212660   4.656   4.350   4.168
 4281SOL     OW12661   3.836   4.538   4.506
 4281SOL    HW112662   3.919   4.548   4.561
 4281SOL    HW212663   3.770   4.608   4.531
 4282SOL     OW12664   4.608   4.069   3.956
 4282SOL    HW112665   4.672   4.116   3.896
 4282SOL    HW212666   4.555   4.002   3.903
 4283SOL     OW12667   4.278   3.913   4.620
 4283SOL    HW112668   4.275   3.936   4.718
 4283SOL    HW212669   4.283   3.997   4.566
 4284SOL     OW12670   4.031   4.641   3.965
 4284SOL    HW112671   4.117   4.669   3.922
 4284SOL    HW212672   4.001   4.554   3.926
 4285SOL     OW12673   4.106   4.394   4.193
 4285SOL    HW112674   4.136   4.299   4.205
 4285SOL    HW212675   4.009   4.402   4.214
 4286SOL     OW12676   4.366   3.856   3.792
 4286SOL    HW112677   4.434   3.793   3.830
 4286SOL    HW212678   4.308   3.807   3.727
 4287SOL     OW12679   4.481   0.050   4.646
 4287SOL    HW112680   4.565   0.050   4.592
 4287SOL    HW212681   4.406   0.087   4.590
 4288SOL     OW12682   4.642   4.232   4.634
 4288SOL    HW112683   4.619   4.235   4.537
 4288SOL    HW212684   4.690   4.146   4.653
 4289SOL     OW12685   4.295   3.785   4.202
 4289SOL    HW112686   4.224   3.793   4.271
 4289SOL    HW212687   4.287   3.861   4.137
 4290SOL     OW12688   0.047   4.891   3.733
 4290SOL    HW112689   0.086   4.837   3.807
 4290SOL    HW212690   5.054   4.941   3.766
 4291SOL     OW12691   4.006   3.768   3.912
 4291SOL    HW112692   4.058   3.847   3.880
 4291SOL    HW212693   4.067   3.705   3.960
 4292SOL     OW12694   4.677   3.971   4.208
 4292SOL    HW112695   4.634   4.016   4.130
 4292SOL    HW212696   4.776   3.977   4.200
 4293SOL     OW12697   4.974   0.174   4.465
 4293SOL    HW112698   4.888   0.123   4.465
 4293SOL    HW212699   5.002   0.192   4.559
 4294SOL     OW12700   4.183   4.900   4.480
 4294SOL    HW112701   4.113   4.871   4.545
 4294SOL    HW212702   4.155   4.874   4.387
 4295SOL     OW12703   4.761   4.245   3.761
 4295SOL    HW112704   4.708   4.328   3.743
 4295SOL    HW212705   4.831   4.265   3.830
 4296SOL     OW12706   4.286   3.945   4.901
 4296SOL    HW112707   4.329   3.863   4.938
 4296SOL    HW212708   4.192   3.951   4.933
 4297SOL     OW12709   4.596   4.194   4.367
 4297SOL    HW112710   4.541   4.226   4.290
 4297SOL    HW212711   4.625   4.100   4.350
 4298SOL     OW12712   4.799   3.761   4.483
 4298SOL    HW112713   4.730   3.775   4.412
 4298SOL    HW212714   4.774   3.681   4.538
 4299SOL     OW12715   4.249   3.967   4.022
 4299SOL    HW112716   4.288   3.930   3.938
 4299SOL    HW212717   4.209   4.057   4.005
 4300SOL     OW12718   4.407   4.797   4.078
 4300SOL    HW112719   4.387   4.792   4.176
 4300SOL    HW212720   4.488   4.742   4.058
 4301SOL     OW12721   4.165   4.587   4.995
 4301SOL    HW112722   4.214   4.602   5.081
 4301SOL    HW212723   4.122   4.497   4.996
 4302SOL     OW12724   4.123   4.818   4.225
 4302SOL    HW112725   4.136   4.899   4.168
 4302SOL    HW212726   4.109   4.738   4.167
 4303SOL     OW12727   4.289   4.250   4.596
 4303SOL    HW112728   4.306   4.307   4.516
 4303SOL    HW212729   4.343   4.283   4.673
 4304SOL     OW12730   4.897   5.035   4.149
 4304SOL    HW112731   4.970   0.014   4.168
 4304SOL    HW212732   4.819   5.054   4.210
 4305SOL     OW12733   4.287   4.629   4.752
 4305SOL    HW112734   4.329   4.720   4.746
 4305SOL    HW212735   4.251   4.616   4.844
 4306SOL     OW12736   5.059   4.530   4.720
 4306SOL    HW112737   4.962   4.507   4.712
 4306SOL    HW212738   0.018   4.461   4.776
 4307SOL     OW12739   4.923   4.265   3.995
 4307SOL    HW112740   4.925   4.181   4.050
 4307SOL    HW212741   4.870   4.334   4.043
 4308SOL     OW12742   4.027   3.930   4.969
 4308SOL    HW112743   4.015   3.948   5.067
 4308SOL    HW212744   4.013   3.832   4.951
 4309SOL     OW12745   4.446   4.369   4.782
 4309SOL    HW112746   4.526   4.328   4.739
 4309SOL    HW212747   4.430   4.460   4.742
 4310SOL     OW12748   4.072   3.805   4.353
 4310SOL    HW112749   4.023   3.891   4.369
 4310SOL    HW212750   4.076   3.752   4.438
 4311SOL     OW12751   0.260   4.145   4.081
 4311SOL    HW112752   0.200   4.066   4.073
 4311SOL    HW212753   0.247   4.187   4.171
 4312SOL     OW12754   4.754   4.471   4.699
 4312SOL    HW112755   4.742   4.482   4.798
 4312SOL    HW212756   4.717   4.382   4.671
 4313SOL     OW12757   5.053   4.561   3.750
 4313SOL    HW112758   0.013   4.501   3.815
 4313SOL    HW212759   0.020   4.568   3.666
 4314SOL     OW12760   4.033   4.552   4.697
 4314SOL    HW112761   4.132   4.566   4.701
 4314SOL    HW212762   4.012   4.457   4.720
 4315SOL     OW12763   4.051   4.263   4.733
 4315SOL    HW112764   4.016   4.170   4.728
 4315SOL    HW212765   4.134   4.270   4.677
 4316SOL     OW12766   4.906   3.978   0.080
 4316SOL    HW112767   4.860   3.988   0.169
 4316SOL    HW212768   4.841   4.000   0.007
 4317SOL     OW12769   3.729   5.049   3.883
 4317SOL    HW112770   3.642   5.070   3.837
 4317SOL    HW212771   3.721   4.960   3.928
 4318SOL     OW12772   4.709   4.490   4.966
 4318SOL    HW112773   4.779   4.521   5.030
 4318SOL    HW212774   4.619   4.522   4.997
 4319SOL     OW12775   3.785   4.278   4.858
 4319SOL    HW112776   3.850   4.248   4.788
 4319SOL    HW212777   3.789   4.216   4.936
 4320SOL     OW12778   4.492   4.270   4.123
 4320SOL    HW112779   4.525   4.210   4.050
 4320SOL    HW212780   4.425   4.334   4.086
 4321SOL     OW12781   4.418   4.180   4.990
 4321SOL    HW112782   4.370   4.102   4.950
 4321SOL    HW212783   4.413   4.259   4.929
 4322SOL     OW12784   4.170   4.211   3.919
 4322SOL    HW112785   4.238   4.281   3.938
 4322SOL    HW212786   4.079   4.253   3.913
 4323SOL     OW12787   5.043   4.693   4.944
 4323SOL    HW112788   5.053   4.659   4.851
 4323SOL    HW212789   5.035   4.792   4.943
 4324SOL     OW12790   3.799   4.987   4.729
 4324SOL    HW112791   3.805   4.970   4.827
 4324SOL    HW212792   3.722   4.936   4.691
 4325SOL     OW12793   4.995   4.693   4.374
 4325SOL    HW112794   5.075   4.641   4.403
 4325SOL    HW212795   5.024   4.783   4.340
 4326SOL     OW12796   4.522   4.952   0.047
 4326SOL    HW112797   4.531   4.966   0.145
 4326SOL    HW212798   4.435   4.989   0.015
 4327SOL     OW12799   3.970   4.042   4.438
 4327SOL    HW112800   3.895   4.101   4.409
 4327SOL    HW212801   3.977   4.042   4.538
 4328SOL     OW12802   4.943   0.202   3.767
 4328SOL    HW112803   4.970   0.123   3.821
 4328SOL    HW212804   4.851   0.187   3.730
 4329SOL     OW12805   4.559   4.702   5.066
 4329SOL    HW112806   4.560   4.720   4.967
 4329SOL    HW212807   4.554   4.788   0.029
 4330SOL     OW12808   4.631   4.629   4.004
 4330SOL    HW112809   4.699   4.655   3.936
 4330SOL    HW212810   4.668   4.557   4.063
 4331SOL     OW12811   4.781   4.841   4.448
 4331SOL    HW112812   4.699   4.785   4.456
 4331SOL    HW212813   4.859   4.783   4.423
 4332SOL     OW12814   4.766   3.947   4.688
 4332SOL    HW112815   4.766   3.888   4.607
 4332SOL    HW212816   4.757   3.890   4.770
 4333SOL     OW12817   3.822   4.067   3.724
 4333SOL    HW112818   3.726   4.051   3.701
 4333SOL    HW212819   3.860   4.136   3.664
 4334SOL     OW12820   3.768   3.891   4.017
 4334SOL    HW112821   3.759   3.984   3.982
 4334SOL    HW212822   3.848   3.847   3.976
 4335SOL     OW12823   4.942   4.010   4.168
 4335SOL    HW112824   5.016   3.973   4.112
 4335SOL    HW212825   4.980   4.066   4.241
 4336SOL     OW12826   4.314   4.448   4.389
 4336SOL    HW112827   4.361   4.535   4.372
 4336SOL    HW212828   4.232   4.443   4.331
 4337SOL     OW12829   4.582   4.665   4.580
 4337SOL    HW112830   4.640   4.596   4.622
 4337SOL    HW212831   4.565   4.739   4.645
 4338SOL     OW12832   4.827   4.710   3.814
 4338SOL    HW112833   4.799   4.764   3.735
 4338SOL    HW212834   4.907   4.654   3.790
 4339SOL     OW12835   3.789   4.976   4.417
 4339SOL    HW112836   3.822   4.898   4.469
 4339SOL    HW212837   3.851   4.995   4.341
 4340SOL     OW12838   4.157   4.139   4.248
 4340SOL    HW112839   4.210   4.067   4.202
 4340SOL    HW212840   4.113   4.101   4.329
 4341SOL     OW12841   4.725   3.690   4.893
 4341SOL    HW112842   4.703   3.657   4.801
 4341SOL    HW212843   4.822   3.676   4.911
 4342SOL     OW12844   4.497   5.058   3.969
 4342SOL    HW112845   4.447   4.988   4.021
 4342SOL    HW212846   4.584   5.076   4.013
 4343SOL     OW12847   5.007   3.800   3.846
 4343SOL    HW112848   5.072   3.739   3.800
 4343SOL    HW212849   4.943   3.745   3.899
 4344SOL     OW12850   3.751   4.800   4.029
 4344SOL    HW112851   3.845   4.813   3.997
 4344SOL    HW212852   3.738   4.706   4.059
 4345CL      CL12853   1.014   0.503   1.875
   5.08681   5.08681   5.08681
