Protein in water
12853
  117GLY      N    1   1.123   2.297   3.907 -0.2024 -0.4264 -0.0017
  117GLY     H1    2   1.138   2.253   3.818 -1.6341 -0.2735 -0.3475
  117GLY     H2    3   1.205   2.288   3.964  0.6172  2.4268 -0.5471
  117GLY     H3    4   1.046   2.247   3.949 -0.6252 -0.3207 -0.6407
  117GLY     CA    5   1.087   2.442   3.890  0.2742  0.3154  0.6857
  117GLY    HA1    6   0.986   2.446   3.849  1.3511  0.0739 -2.2585
  117GLY    HA2    7   1.104   2.479   3.991  0.0006 -1.1754  1.2948
  117GLY      C    8   1.190   2.518   3.801  0.1395 -0.6481  0.5267
  117GLY      O    9   1.284   2.463   3.747 -0.6338 -0.4570 -0.5212
  118THR      N   10   1.162   2.652   3.775 -0.2680 -0.1155 -0.3167
  118THR      H   11   1.076   2.684   3.817 -0.0123  0.4937 -0.2427
  118THR     CA   12   1.243   2.758   3.699  0.1294  1.0849 -0.3201
  118THR     HA   13   1.234   2.712   3.601 -3.1846  0.6884  0.0501
  118THR     CB   14   1.167   2.893   3.706 -0.5583 -0.0291 -0.0848
  118THR     HB   15   1.229   2.973   3.666  0.9103 -1.1208 -0.0670
  118THR    OG1   16   1.130   2.919   3.835  0.4858 -0.1967 -0.2884
  118THR    HG1   17   1.094   2.840   3.871 -0.7132  0.3308 -0.2805
  118THR    CG2   18   1.035   2.878   3.630  0.0931 -0.1616  0.0756
  118THR   HG21   19   0.996   2.777   3.645  0.7574 -0.5988 -1.0246
  118THR   HG22   20   0.954   2.947   3.654 -1.3350 -2.2974  1.9009
  118THR   HG23   21   1.058   2.886   3.524  0.0148 -3.6551 -0.3459
  118THR      C   22   1.383   2.779   3.751 -0.8123  0.3786  0.0871
  118THR      O   23   1.404   2.753   3.870  0.3349 -0.1481  0.6544
  119ASP      N   24   1.477   2.829   3.670 -0.2669  0.4770  0.1131
  119ASP      H   25   1.451   2.865   3.579 -0.1686  0.1448 -0.0491
  119ASP     CA   26   1.620   2.839   3.713 -0.2356  0.4007  0.1074
  119ASP     HA   27   1.631   2.860   3.819  0.4105  0.3058  0.0596
  119ASP     CB   28   1.694   2.705   3.679  0.4687 -0.2872  0.9663
  119ASP    HB1   29   1.641   2.629   3.737 -0.4383 -0.2786  0.1735
  119ASP    HB2   30   1.686   2.691   3.572  0.1077  2.1266  0.6323
  119ASP     CG   31   1.837   2.707   3.721 -0.0179  0.3407  0.2439
  119ASP    OD1   32   1.885   2.791   3.799 -0.6433 -0.0977 -0.1780
  119ASP    OD2   33   1.907   2.608   3.683  0.3464 -0.3424 -0.1832
  119ASP      C   34   1.670   2.964   3.648  0.3466  0.1635  0.0813
  119ASP      O   35   1.701   2.958   3.527 -0.7858  0.0629  0.6332
  120VAL      N   36   1.675   3.077   3.725  0.6417  0.6651  0.1308
  120VAL      H   37   1.642   3.060   3.819  2.1801 -0.6150  0.4868
  120VAL     CA   38   1.744   3.198   3.682  0.5945  0.3666  0.0019
  120VAL     HA   39   1.705   3.227   3.584 -2.1558  0.6566  1.0942
  120VAL     CB   40   1.723   3.302   3.798  0.6997  0.5626 -0.6505
  120VAL     HB   41   1.779   3.395   3.788 -0.1621  1.1010 -0.5883
  120VAL    CG1   42   1.570   3.342   3.796  0.7080  0.2432 -0.2982
  120VAL   HG11   43   1.543   3.379   3.698  2.4807 -1.2501 -1.4337
  120VAL   HG12   44   1.507   3.255   3.816  0.2943  0.5739 -0.1693
  120VAL   HG13   45   1.542   3.419   3.867 -1.0467 -0.0767 -0.6130
  120VAL    CG2   46   1.757   3.252   3.940 -0.3159  0.6470  0.3207
  120VAL   HG21   47   1.693   3.175   3.983  2.1232 -0.4689  2.2081
  120VAL   HG22   48   1.861   3.221   3.949  0.1921  2.4575  1.0448
  120VAL   HG23   49   1.762   3.334   4.011  0.6757  0.0673  0.9429
  120VAL      C   50   1.889   3.182   3.635  0.6879 -0.0384  0.3690
  120VAL      O   51   1.936   3.263   3.559 -0.0120 -0.3857  0.1744
  121GLN      N   52   1.955   3.072   3.671 -0.0983 -0.3162  0.0613
  121GLN      H   53   1.905   3.002   3.724 -0.3135  1.5380  2.5094
  121GLN     CA   54   2.097   3.049   3.632 -0.5203 -0.0874  0.0317
  121GLN     HA   55   2.145   3.146   3.623 -1.1015  0.2521  0.5565
  121GLN     CB   56   2.167   2.942   3.716  0.6592  0.5999 -0.0245
  121GLN    HB1   57   2.113   2.851   3.690 -0.2679  0.9718  0.5419
  121GLN    HB2   58   2.271   2.926   3.688  0.2760 -1.4243 -0.4579
  121GLN     CG   59   2.150   2.967   3.866  0.1738 -0.4338  0.0617
  121GLN    HG1   60   2.044   2.987   3.882 -0.2242  0.2519 -2.8968
  121GLN    HG2   61   2.175   2.871   3.912 -1.1582 -1.1919 -0.7304
  121GLN     CD   62   2.225   3.079   3.936 -0.4213 -0.8472 -0.0501
  121GLN    OE1   63   2.298   3.153   3.869  0.5334 -0.4670 -0.7107
  121GLN    NE2   64   2.227   3.095   4.068 -0.0670 -0.2054 -0.1299
  121GLN   HE21   65   2.179   3.030   4.129  0.7805  0.8584  1.7463
  121GLN   HE22   66   2.268   3.175   4.113 -0.2973 -1.2343  2.0437
  121GLN      C   67   2.104   2.990   3.489  0.4384  0.0411  0.7136
  121GLN      O   68   2.206   3.005   3.425 -0.4309  0.1849  0.2454
  122ALA      N   69   1.992   2.927   3.440  0.6240 -0.8453  0.0087
  122ALA      H   70   1.912   2.932   3.501  0.5486  0.4329 -0.1605
  122ALA     CA   71   1.982   2.843   3.319 -0.1945  0.1034  0.3391
  122ALA     HA   72   2.072   2.781   3.319 -0.8542 -0.8787 -0.4008
  122ALA     CB   73   1.851   2.754   3.323  1.0786  0.4767 -0.5484
  122ALA    HB1   74   1.842   2.693   3.413  1.1102  1.8385  0.4100
  122ALA    HB2   75   1.770   2.828   3.325  1.3673  0.7951 -0.4419
  122ALA    HB3   76   1.840   2.686   3.239 -1.3294  0.9528 -0.7079
  122ALA      C   77   2.003   2.920   3.182  0.3747 -0.8518  0.1064
  122ALA      O   78   2.047   2.863   3.085 -0.1251  0.7934  0.1029
  123TRP      N   79   1.978   3.051   3.185  0.2489  0.0158 -0.2628
  123TRP      H   80   1.942   3.082   3.274 -1.9795 -1.5315 -0.5574
  123TRP     CA   81   2.001   3.137   3.069 -0.5133 -0.6306  0.3014
  123TRP     HA   82   1.972   3.095   2.973 -0.0327  0.0234 -0.1392
  123TRP     CB   83   1.933   3.277   3.091 -0.9522  0.6223  0.0244
  123TRP    HB1   84   2.000   3.342   3.148 -0.6656  2.3416 -2.1225
  123TRP    HB2   85   1.936   3.344   3.005  0.5441  1.3703  0.6235
  123TRP     CG   86   1.799   3.285   3.148  0.5221  0.3619  0.1519
  123TRP    CD1   87   1.682   3.228   3.106 -0.8562  0.5487  0.5667
  123TRP    HD1   88   1.689   3.160   3.022 -2.6218  1.2963 -0.2277
  123TRP    CD2   89   1.747   3.371   3.256  0.1067  0.1569  0.1873
  123TRP    NE1   90   1.571   3.251   3.187  0.1649  0.7756 -0.7899
  123TRP    HE1   91   1.482   3.204   3.186 -0.3800  1.7054  1.0371
  123TRP    CE2   92   1.608   3.344   3.280 -0.6396  0.2967 -0.5023
  123TRP    CE3   93   1.810   3.481   3.328 -0.3877 -0.4524  0.8941
  123TRP    HE3   94   1.913   3.508   3.312 -0.3183 -0.9946  0.3860
  123TRP    CZ2   95   1.543   3.414   3.387  0.1000 -0.4707  0.7138
  123TRP    HZ2   96   1.438   3.397   3.405 -0.1129  0.9562  0.9265
  123TRP    CZ3   97   1.739   3.549   3.430  0.1124 -0.3945 -0.0494
  123TRP    HZ3   98   1.791   3.630   3.479 -2.0593 -0.7105  3.1024
  123TRP    CH2   99   1.603   3.516   3.456 -0.4081 -0.0925 -0.0163
  123TRP    HH2  100   1.553   3.570   3.535 -1.3729 -0.8612 -0.0833
  123TRP      C  101   2.149   3.165   3.045 -0.2496  0.2878  0.2383
  123TRP      O  102   2.191   3.228   2.946 -0.3541 -0.6288 -0.7147
  124ILE      N  103   2.230   3.123   3.148  0.3195  0.0891 -0.1214
  124ILE      H  104   2.186   3.069   3.221 -0.0929 -0.0724 -0.4856
  124ILE     CA  105   2.373   3.150   3.148  0.3338 -0.2398  0.6889
  124ILE     HA  106   2.399   3.169   3.044  2.3154 -0.5117  1.0913
  124ILE     CB  107   2.414   3.278   3.230  0.5255  0.3670 -0.1190
  124ILE     HB  108   2.519   3.298   3.209  1.2800 -0.3805  2.5681
  124ILE    CG1  109   2.400   3.261   3.386  0.2820 -0.6501 -0.5745
  124ILE   HG11  110   2.295   3.268   3.413  0.5508  1.3031  0.1022
  124ILE   HG12  111   2.416   3.159   3.421  1.2138 -0.9812 -1.8987
  124ILE    CG2  112   2.336   3.409   3.193  0.3614  0.3810  0.3537
  124ILE   HG21  113   2.376   3.501   3.234  2.4311 -0.5402  0.5127
  124ILE   HG22  114   2.337   3.424   3.085 -1.6168 -1.0239  0.0690
  124ILE   HG23  115   2.234   3.409   3.233  0.5396  0.4453  0.8126
  124ILE     CD  116   2.485   3.364   3.457 -0.4734 -0.4353 -0.3200
  124ILE    HD1  117   2.427   3.400   3.542 -1.4922 -1.1275 -0.7153
  124ILE    HD2  118   2.578   3.316   3.487  0.6921  0.6562 -2.0069
  124ILE    HD3  119   2.512   3.453   3.399  0.5075 -1.4474 -1.4752
  124ILE      C  120   2.452   3.020   3.179  0.0757 -0.0465  0.7418
  124ILE      O  121   2.557   3.033   3.248  0.8039  0.7969  0.3535
  125ARG      N  122   2.412   2.901   3.126 -0.3851  0.1771  0.3011
  125ARG      H  123   2.332   2.909   3.065  0.3277 -2.0346 -1.0422
  125ARG     CA  124   2.512   2.790   3.116  0.7788 -0.3381  0.0311
  125ARG     HA  125   2.599   2.805   3.181 -0.3098  1.4499  1.1754
  125ARG     CB  126   2.441   2.662   3.162 -0.6192 -0.4491 -0.6082
  125ARG    HB1  127   2.367   2.629   3.089 -0.3770 -1.3381 -0.4649
  125ARG    HB2  128   2.518   2.585   3.159  0.4065  0.4410  1.2174
  125ARG     CG  129   2.380   2.671   3.304 -0.3618 -0.0877 -0.0915
  125ARG    HG1  130   2.448   2.724   3.370  0.7710  1.2042 -2.1642
  125ARG    HG2  131   2.286   2.725   3.298  0.7563  2.1304  0.9644
  125ARG     CD  132   2.361   2.534   3.368  0.4686  0.4159 -0.1568
  125ARG    HD1  133   2.292   2.476   3.308 -1.5022  1.0897  1.3342
  125ARG    HD2  134   2.457   2.484   3.359 -0.3056 -1.3752  1.1103
  125ARG     NE  135   2.322   2.550   3.508  0.0192 -0.3831 -0.5826
  125ARG     HE  136   2.397   2.553   3.575 -1.1756 -2.3295  0.9305
  125ARG     CZ  137   2.196   2.565   3.549 -0.1052 -0.6176 -0.0869
  125ARG    NH1  138   2.092   2.568   3.467 -0.1913  0.1683  0.1090
  125ARG   HH11  139   2.088   2.510   3.384 -1.4439  0.6174 -0.1609
  125ARG   HH12  140   2.003   2.589   3.510  0.9749  3.4100  1.2053
  125ARG    NH2  141   2.170   2.588   3.680  0.0716 -0.3835  0.3209
  125ARG   HH21  142   2.233   2.570   3.757  0.8509 -1.3604 -0.5201
  125ARG   HH22  143   2.077   2.621   3.702 -0.7726 -1.7275 -1.0378
  125ARG      C  144   2.550   2.783   2.968  0.1902 -0.8808 -0.0475
  125ARG      O  145   2.474   2.818   2.880 -0.1912 -0.2477 -0.3882
  126GLY      N  146   2.661   2.711   2.947 -0.2790  0.3778  0.1555
  126GLY      H  147   2.724   2.704   3.025 -1.0474  0.8593  0.8338
  126GLY     CA  148   2.699   2.666   2.814 -0.4739 -0.2802  0.0715
  126GLY    HA1  149   2.739   2.565   2.816 -0.5510 -0.3117  0.0355
  126GLY    HA2  150   2.613   2.640   2.753  1.6686 -4.1048 -1.7085
  126GLY      C  151   2.785   2.771   2.746 -1.0596  0.2382  0.0871
  126GLY      O  152   2.823   2.757   2.628 -0.5542  0.7888 -0.7862
  127CYS      N  153   2.823   2.873   2.823 -0.2077 -0.8078  0.4165
  127CYS      H  154   2.785   2.884   2.916 -1.2738 -0.8461  0.0077
  127CYS     CA  155   2.900   2.991   2.778  1.5840  0.2579  0.3798
  127CYS     HA  156   2.869   3.016   2.676  2.3208 -0.5587 -0.0648
  127CYS     CB  157   2.858   3.114   2.861  0.5504 -1.3410 -0.5445
  127CYS    HB1  158   2.923   3.195   2.829 -2.3486  0.7689 -1.5091
  127CYS    HB2  159   2.754   3.142   2.843 -0.1695 -2.1939  1.7705
  127CYS     SG  160   2.862   3.072   3.038  0.1363  0.2138 -0.5749
  127CYS     HG  161   2.992   3.037   3.039  0.5640  1.6329  2.0786
  127CYS      C  162   3.059   2.975   2.790 -0.0814  0.0300 -0.1120
  127CYS      O  163   3.121   2.942   2.893  0.1950 -0.0369 -0.2355
  128ARG      N  164   3.121   3.008   2.679 -0.2705  0.3749 -0.0849
  128ARG      H  165   3.063   3.029   2.599  1.7355  0.3908 -1.6120
  128ARG     CA  166   3.267   2.994   2.646 -0.2735 -0.3216 -0.5869
  128ARG     HA  167   3.287   2.892   2.678  0.1964 -0.1529 -0.3207
  128ARG     CB  168   3.301   3.014   2.500  1.0504 -0.1602  0.3017
  128ARG    HB1  169   3.227   3.083   2.459 -1.2210 -2.6383 -0.0658
  128ARG    HB2  170   3.401   3.048   2.475  1.6718 -1.1112  1.4148
  128ARG     CG  171   3.284   2.877   2.427 -0.4183  0.0812  0.4363
  128ARG    HG1  172   3.340   2.797   2.476  0.6349  2.0939  2.7031
  128ARG    HG2  173   3.178   2.852   2.438 -1.3567  3.2536 -0.3002
  128ARG     CD  174   3.328   2.882   2.276 -0.2294  0.2321  0.2754
  128ARG    HD1  175   3.287   2.973   2.233  0.8536  0.2519 -0.7812
  128ARG    HD2  176   3.437   2.887   2.264 -0.3927  0.2129 -1.5472
  128ARG     NE  177   3.277   2.762   2.210  0.3249  0.2058 -0.9497
  128ARG     HE  178   3.187   2.776   2.165 -0.3525  0.5375  0.4577
  128ARG     CZ  179   3.345   2.648   2.197  0.0546  0.0310 -0.3632
  128ARG    NH1  180   3.464   2.631   2.256 -0.3028 -0.1449  0.0426
  128ARG   HH11  181   3.492   2.679   2.341  0.1508 -1.6565  0.7906
  128ARG   HH12  182   3.515   2.547   2.234  2.2521  1.4510 -0.5389
  128ARG    NH2  183   3.296   2.558   2.118  0.3825  0.2758 -0.1044
  128ARG   HH21  184   3.204   2.561   2.076 -0.4129 -0.8206  1.4768
  128ARG   HH22  185   3.341   2.468   2.106 -0.2564  0.0973 -1.3313
  128ARG      C  186   3.350   3.093   2.735 -0.5712 -0.6348  0.4570
  128ARG      O  187   3.300   3.201   2.778 -0.0832  0.5557  0.5675
  129LEU      N  188   3.470   3.053   2.775 -0.0063 -0.7007  0.6077
  129LEU      H  189   3.519   2.978   2.728 -0.6558  0.5795 -2.3554
  129LEU     CA  190   3.571   3.132   2.851  0.2999 -0.0029 -0.0253
  129LEU     HA  191   3.533   3.223   2.896 -2.7190 -0.7366 -0.8974
  129LEU     CB  192   3.623   3.036   2.965 -0.0395 -0.4557 -0.5044
  129LEU    HB1  193   3.650   2.936   2.933  1.0203 -0.1408 -0.6141
  129LEU    HB2  194   3.714   3.085   2.998 -0.4966  0.6592 -0.8138
  129LEU     CG  195   3.518   3.026   3.088 -1.1680 -0.1504 -0.5228
  129LEU     HG  196   3.459   3.118   3.088 -2.5206 -1.0018  0.0027
  129LEU    CD1  197   3.425   2.914   3.061 -0.1021  0.7966  0.5398
  129LEU   HD11  198   3.378   2.929   2.964 -0.9484  0.5807  0.9016
  129LEU   HD12  199   3.482   2.822   3.044 -1.4230  0.0304  0.1129
  129LEU   HD13  200   3.352   2.891   3.140 -0.9533 -1.6997 -0.8482
  129LEU    CD2  201   3.585   3.013   3.229 -0.0180  0.4258  0.1577
  129LEU   HD21  202   3.631   2.916   3.244  1.4651  1.0811  0.0208
  129LEU   HD22  203   3.655   3.094   3.251 -1.4543  1.4072  1.3389
  129LEU   HD23  204   3.507   3.020   3.305  0.4206 -1.6269  0.8655
  129LEU      C  205   3.682   3.153   2.757 -0.6356 -0.6113 -0.1741
  129LEU     O1  206   3.773   3.070   2.744  0.2298 -0.1427  0.1763
  129LEU     O2  207   3.685   3.264   2.698  0.0879  0.0018 -0.0299
  130SOL     OW  208   4.882   0.412   3.478 -0.2192 -0.4777 -0.1453
  130SOL    HW1  209   4.927   0.501   3.486 -0.2860 -0.3855 -0.7474
  130SOL    HW2  210   4.799   0.422   3.423 -1.0490 -0.6238  1.0479
  131SOL     OW  211   4.576   2.126   3.449  0.7962  0.4279  0.1327
  131SOL    HW1  212   4.569   2.040   3.499  0.5104  1.1432  1.3508
  131SOL    HW2  213   4.493   2.140   3.395  0.6239  0.2001  0.3397
  132SOL     OW  214   4.478   2.499   0.592 -0.3137  0.3307 -0.2523
  132SOL    HW1  215   4.520   2.444   0.664 -1.7707 -3.1623 -1.7930
  132SOL    HW2  216   4.423   2.572   0.633  3.1760  2.0055  1.8693
  133SOL     OW  217   1.466   4.289   3.955  0.1965  0.3148 -0.1441
  133SOL    HW1  218   1.555   4.251   3.982  0.3089  0.2876 -0.5410
  133SOL    HW2  219   1.393   4.225   3.978  0.2971  0.2501 -0.0010
  134SOL     OW  220   1.385   3.759   3.730 -0.0403 -0.1317  0.1024
  134SOL    HW1  221   1.385   3.859   3.727  1.0636 -0.1359 -0.9789
  134SOL    HW2  222   1.422   3.728   3.818  1.5715  0.4471 -0.3323
  135SOL     OW  223   3.016   3.732   4.618 -0.0396 -0.3380 -0.6442
  135SOL    HW1  224   3.026   3.651   4.677 -0.0060 -0.1683 -0.4135
  135SOL    HW2  225   3.056   3.713   4.529 -1.6763 -1.2466 -1.2382
  136SOL     OW  226   1.860   2.216   0.319  0.2283 -0.3299  0.3832
  136SOL    HW1  227   1.946   2.264   0.304  0.6774 -1.7455 -2.2434
  136SOL    HW2  228   1.802   2.226   0.238 -0.5270 -2.4128  0.6035
  137SOL     OW  229   3.547   4.589   2.037  0.2704  0.4380 -0.0673
  137SOL    HW1  230   3.470   4.562   2.095 -0.3259 -0.0024 -1.0255
  137SOL    HW2  231   3.602   4.509   2.014  1.0046  0.7465  0.5826
  138SOL     OW  232   1.509   4.831   0.701 -0.0524  0.2521  0.3874
  138SOL    HW1  233   1.538   4.910   0.754 -0.4256  1.0376 -0.5531
  138SOL    HW2  234   1.527   4.847   0.604 -1.7291 -0.0714 -0.0115
  139SOL     OW  235   1.223   1.543   1.368 -0.2602  0.3341  0.3604
  139SOL    HW1  236   1.131   1.523   1.333  0.8648 -1.7782 -1.7290
  139SOL    HW2  237   1.245   1.479   1.441  0.1779 -0.4470 -0.4267
  140SOL     OW  238   2.764   0.395   1.169 -0.0852  0.0101 -0.2642
  140SOL    HW1  239   2.799   0.487   1.150 -2.0391  1.6791  3.2691
  140SOL    HW2  240   2.669   0.388   1.139  0.1038 -0.9552 -0.6708
  141SOL     OW  241   4.898   1.190   1.394 -0.0330 -0.0804 -0.2780
  141SOL    HW1  242   4.803   1.206   1.366 -0.6504  1.5981  2.3857
  141SOL    HW2  243   4.901   1.114   1.460  0.3204  0.4477  0.3241
  142SOL     OW  244   4.388   4.013   4.104  0.0784  0.4527  0.4013
  142SOL    HW1  245   4.323   3.978   4.171  1.6852  0.4956  2.0419
  142SOL    HW2  246   4.456   4.070   4.149  1.9381 -0.4933 -1.0531
  143SOL     OW  247   0.488   1.253   1.970  0.1778 -0.1907  0.3690
  143SOL    HW1  248   0.500   1.217   2.062 -0.5782 -0.0267  0.5312
  143SOL    HW2  249   0.459   1.349   1.974  2.3138  0.5352 -0.0571
  144SOL     OW  250   3.568   1.933   3.338  0.5979  0.4785  0.3255
  144SOL    HW1  251   3.525   1.981   3.262 -0.0618 -0.7007 -0.0768
  144SOL    HW2  252   3.666   1.953   3.340  0.4153  1.4453 -0.1122
  145SOL     OW  253   4.979   4.626   1.501 -0.3298 -0.7402  0.0320
  145SOL    HW1  254   5.053   4.572   1.462  2.0124  3.0956 -1.4438
  145SOL    HW2  255   4.900   4.623   1.440 -0.4257 -2.6276  0.1792
  146SOL     OW  256   2.871   3.448   0.465 -0.2585 -0.4077 -0.6151
  146SOL    HW1  257   2.792   3.422   0.521  0.0070  1.6242  0.7916
  146SOL    HW2  258   2.948   3.472   0.524  1.3555 -1.9302 -1.9492
  147SOL     OW  259   2.302   0.773   0.325 -0.2335  0.1395  0.0114
  147SOL    HW1  260   2.247   0.690   0.314 -0.0032  0.1121 -1.0382
  147SOL    HW2  261   2.295   0.805   0.420 -1.1219 -0.5138  0.1859
  148SOL     OW  262   3.957   3.097   1.639  0.0353 -0.0033  0.0721
  148SOL    HW1  263   3.932   3.116   1.734  2.0666 -1.3883  0.9824
  148SOL    HW2  264   4.003   3.177   1.600  0.3916  0.1294  0.7366
  149SOL     OW  265   3.499   1.731   4.753  0.3453  0.1575 -0.1675
  149SOL    HW1  266   3.594   1.734   4.721  0.4053 -0.6375 -0.0820
  149SOL    HW2  267   3.454   1.818   4.732  1.0625  0.5044 -0.2986
  150SOL     OW  268   2.522   0.551   0.884  0.0980  0.4860 -0.0547
  150SOL    HW1  269   2.519   0.486   0.960 -1.2121  0.3029 -0.2343
  150SOL    HW2  270   2.616   0.560   0.851  0.1529 -2.4947 -0.9911
  151SOL     OW  271   2.283   2.301   1.566 -0.4673  0.0783 -0.2325
  151SOL    HW1  272   2.200   2.255   1.598 -0.5397  0.1927 -0.2556
  151SOL    HW2  273   2.352   2.232   1.544 -0.4123 -0.0000  0.1777
  152SOL     OW  274   2.547   1.091   2.555  0.5826 -0.0421 -0.2038
  152SOL    HW1  275   2.531   1.015   2.492 -2.4695 -1.5222  2.1004
  152SOL    HW2  276   2.470   1.153   2.553  0.9355  0.4909  1.2098
  153SOL     OW  277   0.478   4.105   1.490  0.0335  0.1194 -0.4461
  153SOL    HW1  278   0.507   4.162   1.413 -0.2334 -0.2365 -0.8148
  153SOL    HW2  279   0.532   4.021   1.492  2.3882  1.5516  1.7423
  154SOL     OW  280   0.143   3.215   2.225 -0.1810 -0.2000  0.4362
  154SOL    HW1  281   0.074   3.230   2.155 -0.5353 -1.0461  0.5924
  154SOL    HW2  282   0.216   3.157   2.188  0.6401  0.9852  0.1588
  155SOL     OW  283   3.093   0.745   0.114 -0.0859 -0.2700  0.0556
  155SOL    HW1  284   2.998   0.720   0.095 -0.7514  1.3376  1.0228
  155SOL    HW2  285   3.123   0.814   0.050  1.1552 -2.1491 -1.5046
  156SOL     OW  286   4.403   1.096   4.633  0.3491  0.0624  0.3038
  156SOL    HW1  287   4.472   1.093   4.704 -1.0277 -1.9088  1.6564
  156SOL    HW2  288   4.312   1.082   4.673 -0.6723  0.6016 -1.6416
  157SOL     OW  289   3.923   2.852   1.003  0.0922  0.2267  0.1804
  157SOL    HW1  290   4.011   2.896   0.984 -0.3485  1.2311  0.3835
  157SOL    HW2  291   3.931   2.794   1.084  1.0154 -1.1042 -0.8343
  158SOL     OW  292   3.742   1.718   4.258  0.1512  0.2022 -0.1367
  158SOL    HW1  293   3.692   1.680   4.336 -0.0301 -1.8849 -1.1772
  158SOL    HW2  294   3.840   1.718   4.278  0.2149 -1.4589 -0.3064
  159SOL     OW  295   3.914   0.366   2.886  0.6981  0.5563  0.7598
  159SOL    HW1  296   3.872   0.378   2.796  0.3106  1.4378  1.0382
  159SOL    HW2  297   3.889   0.277   2.923  0.5379  0.3466  0.1567
  160SOL     OW  298   1.916   1.370   0.136  0.4475 -0.1955  0.5286
  160SOL    HW1  299   1.864   1.427   0.072  1.2768  1.1086  0.9869
  160SOL    HW2  300   1.860   1.291   0.163 -0.6352  0.2598 -0.3069
  161SOL     OW  301   2.785   4.318   2.126  0.1114 -0.8111 -0.2441
  161SOL    HW1  302   2.830   4.334   2.039  1.6281  3.1114  1.0470
  161SOL    HW2  303   2.853   4.307   2.198 -0.9242  1.4039  1.1887
  162SOL     OW  304   1.412   1.406   3.232  0.5524 -0.1675  0.0203
  162SOL    HW1  305   1.403   1.503   3.251  0.7182 -0.3845  1.3059
  162SOL    HW2  306   1.437   1.358   3.316  1.5962 -1.1722 -0.8326
  163SOL     OW  307   1.861   0.997   3.139 -0.7016  0.5572  0.6337
  163SOL    HW1  308   1.764   1.012   3.160 -0.7966  0.0144  0.5741
  163SOL    HW2  309   1.914   1.004   3.223 -0.8235  0.5866  0.7095
  164SOL     OW  310   3.989   3.396   1.747  0.7452  0.0695 -0.3822
  164SOL    HW1  311   4.008   3.458   1.671  1.8349  1.6588  1.1109
  164SOL    HW2  312   3.997   3.446   1.833  0.7158 -1.9579  0.8523
  165SOL     OW  313   1.892   2.109   2.961  0.5371 -0.2089 -0.0430
  165SOL    HW1  314   1.856   2.132   2.870  0.6837  2.1890  0.4332
  165SOL    HW2  315   1.838   2.156   3.031  1.3839 -0.7861  1.0274
  166SOL     OW  316   3.336   1.501   1.335 -0.1907  0.0226 -0.2841
  166SOL    HW1  317   3.276   1.434   1.291 -0.0292  0.3679 -1.0536
  166SOL    HW2  318   3.348   1.579   1.274 -1.4119  1.3543  1.1249
  167SOL     OW  319   2.081   3.798   4.910  0.0474  0.7878 -0.0064
  167SOL    HW1  320   1.999   3.803   4.967  0.2290  0.9501  0.2376
  167SOL    HW2  321   2.162   3.815   4.965  0.0790  3.8384 -0.7904
  168SOL     OW  322   1.111   3.039   0.879  0.0503 -0.1654  0.4971
  168SOL    HW1  323   1.147   2.955   0.837 -0.2832 -1.3018  2.3983
  168SOL    HW2  324   1.028   3.066   0.831 -0.5583 -1.6712  0.6427
  169SOL     OW  325   0.059   1.061   4.288 -0.5948 -0.4547  0.0717
  169SOL    HW1  326   0.088   0.966   4.304  0.6781 -0.3405 -1.2439
  169SOL    HW2  327  -0.039   1.063   4.268 -0.4876 -1.6409 -0.7460
  170SOL     OW  328   0.553   0.757   3.448 -0.1079 -0.4975  0.3749
  170SOL    HW1  329   0.558   0.666   3.407 -0.6476 -0.3100 -0.1204
  170SOL    HW2  330   0.644   0.784   3.479  0.7618  0.1342 -2.4501
  171SOL     OW  331   1.069   2.928   1.321  0.2998 -0.3251  0.0499
  171SOL    HW1  332   1.040   2.979   1.240 -1.4905  3.7036  2.8787
  171SOL    HW2  333   1.161   2.957   1.346  0.4000 -0.6832  0.0900
  172SOL     OW  334   0.031   1.066   2.395  0.6386  0.4948  0.2344
  172SOL    HW1  335  -0.032   1.134   2.433  1.2321  0.8381  0.6084
  172SOL    HW2  336   0.113   1.111   2.361  0.2085  0.1728 -1.3055
  173SOL     OW  337   4.623   2.100   2.854 -0.6260 -0.4785 -0.5135
  173SOL    HW1  338   4.583   2.029   2.911 -2.7556 -0.1450 -1.4868
  173SOL    HW2  339   4.618   2.188   2.901 -0.2229 -0.5727 -0.2893
  174SOL     OW  340   0.484   2.492   4.008  0.1015 -0.1057 -0.0508
  174SOL    HW1  341   0.569   2.531   3.972 -0.4458  0.0950 -1.2000
  174SOL    HW2  342   0.482   2.501   4.107  1.5555 -0.4035  0.0304
  175SOL     OW  343   2.503   0.653   3.246 -0.5839  0.3241 -0.3604
  175SOL    HW1  344   2.410   0.640   3.282 -0.6118 -0.5576 -0.7321
  175SOL    HW2  345   2.500   0.711   3.165 -0.8364  0.1059 -0.5063
  176SOL     OW  346   2.170   3.262   1.252 -0.0063 -0.4656 -0.0393
  176SOL    HW1  347   2.201   3.246   1.346  0.7951 -1.0544 -0.3940
  176SOL    HW2  348   2.184   3.179   1.198  2.1652  0.7070 -1.4022
  177SOL     OW  349   2.579   0.670   3.855  0.6543  0.7204 -0.0082
  177SOL    HW1  350   2.590   0.766   3.879  0.0684  0.5909  0.8071
  177SOL    HW2  351   2.661   0.619   3.882  2.1043  1.3888 -2.7639
  178SOL     OW  352   4.236   0.980   1.970  0.3871  0.4005 -0.4203
  178SOL    HW1  353   4.255   0.890   2.009 -0.1699 -0.2694 -1.6375
  178SOL    HW2  354   4.322   1.026   1.948  0.6905 -0.5737 -1.3859
  179SOL     OW  355   1.759   2.782   2.889  0.2795 -0.1852  0.3819
  179SOL    HW1  356   1.812   2.798   2.805  0.7353 -0.1544  0.6719
  179SOL    HW2  357   1.805   2.712   2.943 -0.6803 -1.1264  0.0172
  180SOL     OW  358   1.874   0.590   4.752 -0.5755  0.4856 -0.1117
  180SOL    HW1  359   1.808   0.516   4.741  0.3685 -0.1111 -2.3501
  180SOL    HW2  360   1.903   0.595   4.847  0.3544 -2.9921 -0.0724
  181SOL     OW  361   3.696   1.289   3.357  0.5948 -0.5073  0.3840
  181SOL    HW1  362   3.767   1.241   3.307 -0.4106 -1.3685 -0.2749
  181SOL    HW2  363   3.695   1.385   3.331  1.3734 -0.5374  0.2461
  182SOL     OW  364   3.972   1.440   0.323 -0.0059 -0.2856 -0.0838
  182SOL    HW1  365   4.003   1.477   0.235 -0.4088 -0.2556 -0.2188
  182SOL    HW2  366   3.887   1.388   0.308  0.8467 -1.7619  0.0003
  183SOL     OW  367   0.026   3.071   2.432 -0.1540  0.2136 -0.5974
  183SOL    HW1  368   0.036   3.108   2.524 -1.3523  0.4458 -0.5414
  183SOL    HW2  369   0.042   3.144   2.365  2.0644 -0.2469 -0.6593
  184SOL     OW  370   1.561   2.166   1.080  0.3701 -0.2510  0.4429
  184SOL    HW1  371   1.502   2.234   1.123  0.4632  0.9990 -1.2990
  184SOL    HW2  372   1.536   2.156   0.984  0.3398 -2.7418  0.6482
  185SOL     OW  373   3.747   1.156   4.465  0.4211  0.0771 -0.1824
  185SOL    HW1  374   3.821   1.221   4.479 -0.2931  1.2308 -1.4933
  185SOL    HW2  375   3.772   1.091   4.392  0.1442  0.4842 -0.6447
  186SOL     OW  376   3.372   0.131   5.024  0.2896  0.2430 -0.4855
  186SOL    HW1  377   3.282   0.088   5.013  0.5510 -0.0288 -1.5971
  186SOL    HW2  378   3.436   0.065   5.063 -0.4006  0.9422  2.0481
  187SOL     OW  379   4.594   3.120   1.872  0.5767 -0.5692  0.0905
  187SOL    HW1  380   4.688   3.128   1.837  0.7909 -0.0478  0.7693
  187SOL    HW2  381   4.594   3.059   1.951  0.1556 -1.4363 -0.5564
  188SOL     OW  382   4.470   2.801   4.769  0.2766 -0.2452 -0.2265
  188SOL    HW1  383   4.442   2.813   4.674  1.3622  0.1864 -0.5073
  188SOL    HW2  384   4.451   2.885   4.820  0.5257 -0.1555 -0.2805
  189SOL     OW  385   1.126   4.084   0.269  1.1596 -0.2424 -0.4672
  189SOL    HW1  386   1.111   4.182   0.279 -0.1690 -0.0097 -3.6299
  189SOL    HW2  387   1.224   4.066   0.259  1.3450  0.8844 -0.7593
  190SOL     OW  388   3.912   2.439   3.202 -0.0765 -0.2368  0.7590
  190SOL    HW1  389   3.904   2.351   3.248  0.5324 -0.8993 -0.3693
  190SOL    HW2  390   4.002   2.478   3.220  0.8633 -1.3436 -1.2620
  191SOL     OW  391   3.387   4.167   2.581 -0.3091  0.0884 -1.1139
  191SOL    HW1  392   3.483   4.193   2.592 -0.3677  0.1658 -0.7713
  191SOL    HW2  393   3.328   4.242   2.615 -0.4848 -0.1125 -0.9728
  192SOL     OW  394   1.397   3.886   4.399  0.6301 -0.2382  0.0756
  192SOL    HW1  395   1.496   3.894   4.399  0.5345  2.2229  1.5115
  192SOL    HW2  396   1.357   3.978   4.398 -1.6682 -1.1782 -1.5576
  193SOL     OW  397   2.020   1.420   3.679  0.0992 -0.2938 -0.5106
  193SOL    HW1  398   2.027   1.465   3.590 -0.2864  1.0407  0.1114
  193SOL    HW2  399   2.112   1.411   3.718  0.2689 -0.8741 -1.0322
  194SOL     OW  400   0.687   1.789   1.806 -0.3013  0.1299  0.2229
  194SOL    HW1  401   0.755   1.858   1.783  1.6744 -1.0847  2.0307
  194SOL    HW2  402   0.688   1.716   1.738  0.3021  0.0536  0.3159
  195SOL     OW  403   1.145   3.181   4.758  0.2024  0.0825  0.5376
  195SOL    HW1  404   1.190   3.099   4.721  1.3410 -0.1558  2.3205
  195SOL    HW2  405   1.144   3.253   4.689 -1.7473 -1.6898 -1.4558
  196SOL     OW  406   4.038   1.465   2.284 -0.6278 -0.5220  0.5026
  196SOL    HW1  407   4.010   1.451   2.190 -0.3721 -2.4540  0.6831
  196SOL    HW2  408   3.958   1.485   2.340 -0.8379  0.1616 -0.0293
  197SOL     OW  409   3.947   3.561   1.981  0.4683  0.5275 -0.3349
  197SOL    HW1  410   3.974   3.628   2.049 -1.2061 -0.0476  0.9599
  197SOL    HW2  411   3.912   3.608   1.900 -0.0217  1.2223  0.2700
  198SOL     OW  412   1.828   4.209   3.338  0.7386  0.1000 -0.2846
  198SOL    HW1  413   1.909   4.153   3.316  0.2749 -0.4121 -0.7284
  198SOL    HW2  414   1.785   4.174   3.421  0.8820  0.2713 -0.1384
  199SOL     OW  415   0.502   1.553   0.554 -0.0760 -0.2693 -0.0348
  199SOL    HW1  416   0.453   1.525   0.472 -0.4717 -0.1367  0.1546
  199SOL    HW2  417   0.437   1.589   0.621  0.1920 -0.7799  0.5088
  200SOL     OW  418   1.077   2.360   2.290 -0.3735 -0.2593 -0.2452
  200SOL    HW1  419   1.113   2.376   2.198 -0.8931  2.0336 -0.1250
  200SOL    HW2  420   1.152   2.343   2.353  0.0241 -1.3823 -0.9921
  201SOL     OW  421   5.040   1.643   0.581  0.4526 -0.3415 -0.3930
  201SOL    HW1  422   4.945   1.613   0.585  0.1779  0.6560  1.0998
  201SOL    HW2  423   5.053   1.698   0.498 -0.8309  1.2419  0.3992
  202SOL     OW  424   1.830   3.528   0.249 -0.1253  0.1590  0.3019
  202SOL    HW1  425   1.777   3.471   0.186  1.0555 -0.4418 -0.1567
  202SOL    HW2  426   1.889   3.470   0.305  0.3639  0.8517  0.5115
  203SOL     OW  427   1.921   4.660   3.554  0.2283  0.6366  0.4514
  203SOL    HW1  428   1.982   4.712   3.494  0.2945  1.7756  1.4593
  203SOL    HW2  429   1.827   4.669   3.521  0.4224  0.1085 -0.2600
  204SOL     OW  430   2.156   0.317   0.146  0.0983  0.0590 -0.6586
  204SOL    HW1  431   2.255   0.302   0.150  0.3118  1.5077  1.4042
  204SOL    HW2  432   2.108   0.230   0.163  1.0528 -0.3778 -0.1332
  205SOL     OW  433   4.317   4.879   4.606  0.1221 -0.6716  0.0458
  205SOL    HW1  434   4.410   4.882   4.568  0.8273 -1.3557  1.6115
  205SOL    HW2  435   4.318   4.825   4.691 -1.3197  0.9319  1.1368
  206SOL     OW  436   1.447   2.105   4.648  0.4739  0.6273 -0.4798
  206SOL    HW1  437   1.463   2.202   4.664  1.1968  0.0591  3.0137
  206SOL    HW2  438   1.535   2.059   4.635  0.1673  0.3391 -1.6348
  207SOL     OW  439   1.417   0.722   4.785  0.2497 -0.2372 -0.4920
  207SOL    HW1  440   1.383   0.665   4.710 -0.5130 -1.3429  0.6464
  207SOL    HW2  441   1.432   0.664   4.866  0.6999  0.9823  0.3212
  208SOL     OW  442   0.036   3.495   0.544 -0.0860 -0.2852  0.5683
  208SOL    HW1  443   0.117   3.533   0.499  0.1184 -0.1132  1.0724
  208SOL    HW2  444  -0.025   3.457   0.475 -0.5773  1.4899 -0.0296
  209SOL     OW  445   4.723   2.088   0.514 -0.2333 -0.5868 -0.2736
  209SOL    HW1  446   4.787   2.047   0.578  1.2735 -1.3060 -2.1279
  209SOL    HW2  447   4.761   2.173   0.478 -1.1704 -0.0507 -0.0154
  210SOL     OW  448   3.811   2.311   1.403 -0.3270 -0.1273  0.1733
  210SOL    HW1  449   3.817   2.211   1.407 -0.5650 -0.1800 -0.6408
  210SOL    HW2  450   3.903   2.350   1.408 -0.0900 -0.4664 -1.2106
  211SOL     OW  451   2.931   2.399   2.602  0.7251  0.0243  0.0714
  211SOL    HW1  452   2.965   2.341   2.676 -0.1769 -1.5567 -0.6927
  211SOL    HW2  453   3.006   2.424   2.541  0.9347 -1.5203 -0.3442
  212SOL     OW  454   4.195   1.238   0.656  0.4141  0.2805 -0.0807
  212SOL    HW1  455   4.282   1.193   0.636  0.4469  0.4398 -0.3085
  212SOL    HW2  456   4.176   1.232   0.754  0.5653  0.0386 -0.0645
  213SOL     OW  457   2.828   5.009   4.768 -0.3812  0.0874  0.1604
  213SOL    HW1  458   2.841   4.910   4.780  1.1149  0.3583  1.1447
  213SOL    HW2  459   2.803   5.029   4.674 -1.9017 -1.3215  0.2326
  214SOL     OW  460   4.971   1.511   2.575 -0.4639 -0.5027  0.3559
  214SOL    HW1  461   5.024   1.582   2.622 -1.7604 -0.0214  1.1660
  214SOL    HW2  462   4.943   1.544   2.485 -0.5783 -0.2133  0.4977
  215SOL     OW  463   1.126   1.683   2.561  0.1763 -0.2833  0.7423
  215SOL    HW1  464   1.150   1.586   2.565 -0.9163 -0.5600  0.9594
  215SOL    HW2  465   1.176   1.727   2.486  0.8196 -0.9724  0.7630
  216SOL     OW  466   4.283   2.037   2.250  0.0972 -0.4467  0.6294
  216SOL    HW1  467   4.331   2.077   2.328 -0.8052 -0.3612  1.1619
  216SOL    HW2  468   4.184   2.053   2.260 -0.0313 -0.3942 -0.5613
  217SOL     OW  469   4.443   3.454   2.965 -0.8716  0.0382  0.2787
  217SOL    HW1  470   4.497   3.538   2.974 -0.1623 -0.4774  0.9904
  217SOL    HW2  471   4.369   3.469   2.900  0.1227  0.7698 -0.7221
  218SOL     OW  472   4.314   0.595   0.284 -0.2825 -0.1762  0.2806
  218SOL    HW1  473   4.353   0.628   0.370 -0.6023  0.6865  0.1062
  218SOL    HW2  474   4.215   0.586   0.294 -0.1345 -1.7814  0.5361
  219SOL     OW  475   2.729   4.132   3.624 -0.4270 -0.2662 -0.4359
  219SOL    HW1  476   2.672   4.129   3.542 -0.5336  2.3445 -0.5372
  219SOL    HW2  477   2.673   4.112   3.704 -0.2795 -3.0464 -0.9218
  220SOL     OW  478   0.962   1.546   0.691  0.8744 -0.4348 -0.0178
  220SOL    HW1  479   0.893   1.525   0.621  1.7430 -2.2188 -0.3956
  220SOL    HW2  480   0.917   1.591   0.769 -0.2976  0.5523 -1.2177
  221SOL     OW  481   3.056   1.513   4.623  0.1328  0.3702  0.3059
  221SOL    HW1  482   2.996   1.496   4.544 -1.0660  1.9574  0.8288
  221SOL    HW2  483   3.072   1.611   4.632  1.1443  0.1207  1.4302
  222SOL     OW  484   1.472   4.266   4.888 -0.6511 -0.1746 -1.2554
  222SOL    HW1  485   1.509   4.210   4.961 -0.9209 -1.7463 -2.2762
  222SOL    HW2  486   1.515   4.356   4.889 -0.2627 -0.3611  0.4700
  223SOL     OW  487   1.739   0.380   2.060  0.0948 -0.0403 -0.1232
  223SOL    HW1  488   1.836   0.385   2.038  0.3443  0.6189  1.0803
  223SOL    HW2  489   1.693   0.320   1.994  1.2009  0.1122 -1.0621
  224SOL     OW  490   4.673   4.007   2.681  0.1368  0.0483 -0.4860
  224SOL    HW1  491   4.689   3.944   2.605  0.9353  0.2505 -0.5003
  224SOL    HW2  492   4.585   4.051   2.671 -0.2756 -0.7964 -0.6718
  225SOL     OW  493   1.919   1.153   2.311 -0.6075 -0.1583  0.3120
  225SOL    HW1  494   1.888   1.185   2.222 -0.2177  0.5368  0.4213
  225SOL    HW2  495   1.933   1.054   2.308 -1.0133 -0.2043 -0.2676
  226SOL     OW  496   2.426   4.684   0.839  0.1269 -0.4775 -0.1404
  226SOL    HW1  497   2.361   4.611   0.857 -0.0442 -0.7222 -1.6131
  226SOL    HW2  498   2.396   4.735   0.758  1.6428 -0.4607 -0.7164
  227SOL     OW  499   3.077   1.695   0.602 -0.5917  0.0395  0.4625
  227SOL    HW1  500   3.150   1.696   0.534 -0.2811 -0.8268  0.7688
  227SOL    HW2  501   2.990   1.716   0.558 -0.4177 -0.6738 -0.2279
  228SOL     OW  502   3.148   1.464   0.739  0.0629 -0.2546 -0.1321
  228SOL    HW1  503   3.133   1.555   0.700  0.4290  0.2089  0.7983
  228SOL    HW2  504   3.068   1.406   0.718 -1.6182  1.1892  1.8552
  229SOL     OW  505   3.459   1.045   2.571  0.0409 -0.4191 -0.2529
  229SOL    HW1  506   3.411   0.959   2.555 -0.8515  0.0337 -0.1300
  229SOL    HW2  507   3.417   1.092   2.650  1.0857 -0.2837  0.2334
  230SOL     OW  508   1.119   4.712   0.896  0.0516  0.4242  0.2969
  230SOL    HW1  509   1.204   4.667   0.922  1.0916  1.8638 -0.4303
  230SOL    HW2  510   1.130   4.755   0.807 -1.9129 -0.4963 -0.4421
  231SOL     OW  511   4.288   0.261   3.736  0.0442  0.4399 -0.1945
  231SOL    HW1  512   4.265   0.263   3.833 -2.3889 -0.5938 -0.6745
  231SOL    HW2  513   4.362   0.196   3.720 -2.2634 -2.5708  0.5633
  232SOL     OW  514   1.563   0.790   3.718 -0.1483  0.3529  0.2688
  232SOL    HW1  515   1.568   0.735   3.635 -0.0431  1.0510 -0.1957
  232SOL    HW2  516   1.632   0.758   3.783 -0.2535 -0.2201  0.1067
  233SOL     OW  517   1.120   1.794   1.751  0.0176  0.3206  0.5077
  233SOL    HW1  518   1.177   1.822   1.674 -0.2021  2.1259  0.9506
  233SOL    HW2  519   1.123   1.864   1.822 -2.0801  0.0958  0.8988
  234SOL     OW  520   2.680   1.861   4.877  0.0031 -0.0057  0.1283
  234SOL    HW1  521   2.604   1.896   4.821  0.0577 -0.5501 -0.2984
  234SOL    HW2  522   2.767   1.887   4.835  0.0470 -1.4636 -0.7363
  235SOL     OW  523   1.298   3.956   4.956 -0.1985  0.3665  0.6598
  235SOL    HW1  524   1.340   3.984   4.870  0.4485  0.8681  1.1271
  235SOL    HW2  525   1.209   3.914   4.938  0.1940 -0.0823 -0.2953
  236SOL     OW  526   3.452   4.230   0.366  0.9531 -0.0443 -0.0596
  236SOL    HW1  527   3.365   4.185   0.387  1.0510 -0.1232  0.1873
  236SOL    HW2  528   3.487   4.195   0.280  1.1010 -0.5595  0.2046
  237SOL     OW  529   3.552   2.819   1.493 -0.2904  0.2126  0.2473
  237SOL    HW1  530   3.599   2.877   1.559 -2.5496  1.9698  0.4125
  237SOL    HW2  531   3.508   2.743   1.540  0.9886 -0.5238  0.2860
  238SOL     OW  532   2.154   3.985   4.259 -0.0462 -0.0250 -0.7128
  238SOL    HW1  533   2.237   4.009   4.208  0.7789 -1.3199 -0.0202
  238SOL    HW2  534   2.148   4.041   4.341  0.6444 -0.5583 -0.2891
  239SOL     OW  535   2.804   0.999   1.084 -0.9682  0.6222  0.0282
  239SOL    HW1  536   2.863   1.058   1.028  0.2314  1.0596  1.6382
  239SOL    HW2  537   2.711   1.035   1.084 -0.3612  2.2986  0.5883
  240SOL     OW  538   2.769   4.091   1.216  0.2956 -0.2665 -0.1034
  240SOL    HW1  539   2.784   4.177   1.264  0.1692 -0.1852 -0.2099
  240SOL    HW2  540   2.857   4.048   1.196  0.3310 -0.8295  1.1525
  241SOL     OW  541   2.836   0.368   0.304 -0.1556 -0.6073  0.4049
  241SOL    HW1  542   2.744   0.352   0.271 -0.1005  0.7128 -0.4743
  241SOL    HW2  543   2.897   0.386   0.226  0.0423  2.2688  1.1299
  242SOL     OW  544   0.689   3.077   1.031  0.4265 -0.4034 -0.3412
  242SOL    HW1  545   0.662   2.981   1.020 -1.6771  0.1159 -0.0282
  242SOL    HW2  546   0.661   3.129   0.950  0.5574  0.1737 -0.0218
  243SOL     OW  547   0.835   0.165   3.560 -0.1070 -0.0702 -0.6749
  243SOL    HW1  548   0.901   0.130   3.494  0.8560  0.0735  0.1730
  243SOL    HW2  549   0.742   0.152   3.526  0.3628 -0.0421 -2.0177
  244SOL     OW  550   2.073   1.036   0.574  0.1054 -0.9439  0.3448
  244SOL    HW1  551   2.149   1.097   0.552  0.5954 -1.1680  1.3661
  244SOL    HW2  552   2.023   1.013   0.490 -0.5886  1.4736  0.0177
  245SOL     OW  553   4.142   1.541   2.709 -0.5614  0.6059  0.3991
  245SOL    HW1  554   4.159   1.534   2.807  2.3581 -0.4994 -0.0796
  245SOL    HW2  555   4.198   1.615   2.671  0.0130 -0.3671 -0.7228
  246SOL     OW  556   3.058   4.470   1.727 -0.0334  0.0190 -0.0137
  246SOL    HW1  557   3.154   4.440   1.726 -0.3451 -1.0247 -0.4230
  246SOL    HW2  558   3.037   4.518   1.642  0.0358 -0.0616 -0.0767
  247SOL     OW  559   3.441   4.851   4.931  0.8941  0.2443 -0.1928
  247SOL    HW1  560   3.493   4.882   5.010  0.6935  1.4824 -0.5385
  247SOL    HW2  561   3.446   4.919   4.858 -0.2424 -0.1615 -0.6689
  248SOL     OW  562   4.856   0.909   1.315  0.0855 -0.4440  0.0606
  248SOL    HW1  563   4.821   0.860   1.395  1.6729 -2.4556 -0.4130
  248SOL    HW2  564   4.953   0.889   1.304  0.0667  0.4083 -1.9559
  249SOL     OW  565   4.191   2.182   3.117 -0.6283 -0.1771 -0.0641
  249SOL    HW1  566   4.194   2.236   3.033 -0.0917 -0.9623 -0.5652
  249SOL    HW2  567   4.101   2.140   3.128 -0.4692 -0.6961 -0.6676
  250SOL     OW  568   4.081   4.904   1.794 -0.6820 -0.2777  0.3890
  250SOL    HW1  569   4.150   4.973   1.814  0.3111 -0.8267 -0.8972
  250SOL    HW2  570   4.110   4.816   1.833 -0.7753 -0.4506  0.0753
  251SOL     OW  571   2.702   2.639   2.149  0.6245  0.5187  0.0062
  251SOL    HW1  572   2.718   2.664   2.244  1.6975 -0.7423  0.1841
  251SOL    HW2  573   2.620   2.583   2.142 -0.8886  2.6256 -0.1876
  252SOL     OW  574   3.333   0.135   4.620 -0.0625  0.2756  0.1572
  252SOL    HW1  575   3.243   0.174   4.639 -0.3464 -1.3458  2.6521
  252SOL    HW2  576   3.396   0.207   4.591 -1.0930  2.1974  2.4178
  253SOL     OW  577   3.880   1.468   2.744  0.1283 -0.3544 -0.3363
  253SOL    HW1  578   3.849   1.401   2.677  0.7961 -0.2126 -0.7956
  253SOL    HW2  579   3.968   1.507   2.715 -0.3308  0.8556 -0.1616
  254SOL     OW  580   3.120   3.078   1.029  0.5962  0.2872  0.6369
  254SOL    HW1  581   3.131   2.995   0.973 -0.2837 -0.5668  1.6891
  254SOL    HW2  582   3.064   3.057   1.109  0.6113  1.8444  1.0842
  255SOL     OW  583   3.444   2.210   1.648 -0.3162  0.0741 -0.1954
  255SOL    HW1  584   3.377   2.168   1.709  0.0280  0.2582  0.3095
  255SOL    HW2  585   3.522   2.149   1.637  0.4091  0.7617  0.9251
  256SOL     OW  586   0.212   0.272   0.384 -0.0414  0.1424 -0.1200
  256SOL    HW1  587   0.293   0.326   0.406  0.3328 -1.0185  1.5234
  256SOL    HW2  588   0.130   0.319   0.415  0.3241 -0.4496  1.8487
  257SOL     OW  589   0.676   2.262   3.825  0.1947  0.6714  0.2506
  257SOL    HW1  590   0.675   2.341   3.763 -1.2154 -0.5900 -1.4555
  257SOL    HW2  591   0.588   2.255   3.871  0.1181 -0.1744 -0.0047
  258SOL     OW  592   1.531   1.328   0.718 -0.3746  0.7692 -0.1004
  258SOL    HW1  593   1.477   1.246   0.699  0.5837  0.1381 -0.2006
  258SOL    HW2  594   1.517   1.395   0.646  0.2638 -0.0654 -1.0294
  259SOL     OW  595   2.014   1.957   2.378  0.0151  0.6003 -0.0894
  259SOL    HW1  596   1.936   1.894   2.384  0.4989  0.0368  0.5526
  259SOL    HW2  597   2.088   1.914   2.327  0.3769  0.6168  0.4145
  260SOL     OW  598   0.957   1.357   3.848 -0.3074 -0.4271  0.0080
  260SOL    HW1  599   0.968   1.339   3.946 -1.7937 -0.1036  0.2574
  260SOL    HW2  600   1.032   1.314   3.797  2.0896  1.6943  1.5062
  261SOL     OW  601   3.212   4.031   1.473 -0.3902  0.6628 -0.1393
  261SOL    HW1  602   3.182   4.119   1.437 -0.4629  1.4218  1.6628
  261SOL    HW2  603   3.278   4.046   1.547 -1.5569 -0.7099  1.2703
  262SOL     OW  604   1.419   1.031   2.176  0.3718 -0.3651  0.1993
  262SOL    HW1  605   1.429   1.120   2.221  3.1461 -0.6968  0.4260
  262SOL    HW2  606   1.452   0.959   2.237  0.4343 -1.2776 -0.8688
  263SOL     OW  607   0.771   4.871   0.802  0.0107  0.5482 -0.1036
  263SOL    HW1  608   0.795   4.869   0.705 -0.9157  0.1556 -0.3411
  263SOL    HW2  609   0.781   4.964   0.837  0.2050  0.7235 -0.6223
  264SOL     OW  610   4.261   1.703   1.960 -0.1991 -0.1472 -0.3067
  264SOL    HW1  611   4.301   1.724   2.049 -0.3544 -0.0490 -0.2596
  264SOL    HW2  612   4.334   1.693   1.892 -0.1276  0.9521 -0.4156
  265SOL     OW  613   4.414   4.847   3.429  0.2404  0.2064  0.0603
  265SOL    HW1  614   4.479   4.900   3.375 -1.9273  2.5372 -0.4358
  265SOL    HW2  615   4.426   4.868   3.526  1.6411 -1.0984  0.2027
  266SOL     OW  616   4.232   3.930   1.501  0.0181  0.7154 -0.1580
  266SOL    HW1  617   4.197   3.882   1.581 -2.2923  0.5402 -1.2178
  266SOL    HW2  618   4.182   4.016   1.489 -0.2271  0.3664 -1.8398
  267SOL     OW  619   0.214   3.847   1.727 -0.3375  0.5112 -0.3078
  267SOL    HW1  620   0.227   3.945   1.742  1.0749  0.9112 -3.3105
  267SOL    HW2  621   0.296   3.797   1.754  0.4376  0.6880 -2.1910
  268SOL     OW  622   4.556   2.313   1.284 -0.1168  0.8302 -0.2336
  268SOL    HW1  623   4.622   2.260   1.230 -0.2606  0.6073 -0.1955
  268SOL    HW2  624   4.533   2.397   1.236  1.3092  1.6269  0.4398
  269SOL     OW  625   4.885   4.562   3.037 -0.6906  0.0341  0.4362
  269SOL    HW1  626   4.911   4.619   2.959  1.3203 -1.5383 -0.1230
  269SOL    HW2  627   4.785   4.551   3.038 -0.8538  0.9116 -1.2920
  270SOL     OW  628   4.004   0.868   0.261 -0.9558  0.5382  0.2240
  270SOL    HW1  629   4.046   0.948   0.217 -1.7317 -0.2660 -2.1891
  270SOL    HW2  630   3.922   0.896   0.310 -0.2974  1.4318  0.8453
  271SOL     OW  631   4.866   2.835   0.254  0.1939 -0.3261  0.1781
  271SOL    HW1  632   4.823   2.777   0.185  1.0473 -0.5256 -0.2037
  271SOL    HW2  633   4.858   2.791   0.344  2.1246 -1.8163 -0.3091
  272SOL     OW  634   2.492   1.729   2.999 -0.2349 -0.0693  0.8328
  272SOL    HW1  635   2.460   1.813   2.954  0.6208  0.2663  0.8174
  272SOL    HW2  636   2.520   1.663   2.929  3.7629  1.4798  0.6996
  273SOL     OW  637   4.734   2.205   1.089  0.4207 -0.1959  0.4297
  273SOL    HW1  638   4.689   2.119   1.068 -0.0196  0.5832 -2.1419
  273SOL    HW2  639   4.832   2.189   1.101  0.2857 -1.0917  0.3734
  274SOL     OW  640   4.778   0.244   0.681  0.4284  0.1470 -0.1754
  274SOL    HW1  641   4.777   0.275   0.586 -2.5978 -0.4626 -0.4275
  274SOL    HW2  642   4.765   0.322   0.743  0.2873  0.2722 -0.3657
  275SOL     OW  643   2.558   4.937   2.867  0.7309 -0.0617 -0.2137
  275SOL    HW1  644   2.502   5.018   2.885  1.1745  0.4728 -1.1569
  275SOL    HW2  645   2.564   4.882   2.950  3.7956  2.9167  1.8245
  276SOL     OW  646   4.856   1.963   3.038 -0.0146 -0.0767  0.0073
  276SOL    HW1  647   4.793   2.001   2.970 -1.3790  3.0088  2.7029
  276SOL    HW2  648   4.804   1.912   3.106  0.9477 -0.8559  0.1734
  277SOL     OW  649   3.991   4.414   2.531 -0.3618 -0.1495 -1.0523
  277SOL    HW1  650   3.943   4.470   2.599  2.3201  0.0339  0.8762
  277SOL    HW2  651   4.063   4.469   2.488  0.6597 -1.3963 -0.9827
  278SOL     OW  652   3.067   1.922   2.794 -0.0170 -0.2436  0.3503
  278SOL    HW1  653   3.082   1.839   2.739  0.6081 -0.2685  0.5538
  278SOL    HW2  654   2.976   1.918   2.835 -0.4552 -0.2725 -0.6003
  279SOL     OW  655   4.870   3.445   3.129 -0.1796  0.3013  0.2113
  279SOL    HW1  656   4.912   3.355   3.112  0.3739  0.4900  0.5583
  279SOL    HW2  657   4.777   3.432   3.162 -0.5122 -0.1155 -0.8547
  280SOL     OW  658   2.153   2.412   1.367  0.1313  0.3965  0.4332
  280SOL    HW1  659   2.103   2.358   1.300 -2.7318  2.6864  0.5454
  280SOL    HW2  660   2.205   2.351   1.427 -1.7071 -2.0840 -0.3437
  281SOL     OW  661   0.327   0.375   4.294  0.3931  0.4680  0.2514
  281SOL    HW1  662   0.329   0.355   4.196 -2.2389 -0.7811  0.3660
  281SOL    HW2  663   0.234   0.402   4.321  1.3604  2.1577  2.1861
  282SOL     OW  664   2.394   0.855   1.214  0.0244  0.5539 -0.1271
  282SOL    HW1  665   2.328   0.780   1.216 -0.9427  1.3081 -1.3686
  282SOL    HW2  666   2.404   0.894   1.305  0.4878 -1.0157  0.5138
  283SOL     OW  667   4.494   0.409   4.285  0.5027  0.5017 -0.1819
  283SOL    HW1  668   4.505   0.507   4.268 -0.5335  0.6512 -0.0460
  283SOL    HW2  669   4.488   0.360   4.198  0.8980  0.5719 -0.2490
  284SOL     OW  670   0.340   4.920   2.128 -0.4072 -0.0038  0.4541
  284SOL    HW1  671   0.354   4.906   2.030 -0.3116 -0.6705  0.5570
  284SOL    HW2  672   0.283   5.001   2.142  0.3621  0.6502 -0.1109
  285SOL     OW  673   4.361   2.004   4.640 -0.2597  0.7282  0.0341
  285SOL    HW1  674   4.271   2.045   4.654 -0.6158  0.1696 -0.5683
  285SOL    HW2  675   4.358   1.907   4.663 -0.5193  0.0781 -2.4292
  286SOL     OW  676   0.209   1.316   2.893 -0.2766  0.3737 -0.3433
  286SOL    HW1  677   0.192   1.261   2.976 -2.7146 -0.6072 -1.3736
  286SOL    HW2  678   0.163   1.404   2.902  2.6574  1.9287  0.8171
  287SOL     OW  679   0.714   4.200   4.408 -0.6229  0.4312 -0.4969
  287SOL    HW1  680   0.690   4.237   4.319 -0.2794 -0.1604 -0.8400
  287SOL    HW2  681   0.810   4.171   4.408 -1.6162 -3.4475 -1.3154
  288SOL     OW  682   0.010   4.188   0.620  0.5447 -0.5340 -0.0140
  288SOL    HW1  683  -0.018   4.134   0.540 -2.4585 -0.8305  1.0979
  288SOL    HW2  684   0.046   4.276   0.589 -0.0394 -0.8492 -1.7196
  289SOL     OW  685   0.647   2.344   0.723 -0.0752 -0.2244  0.1462
  289SOL    HW1  686   0.732   2.349   0.671 -0.9553  1.2537 -1.2702
  289SOL    HW2  687   0.595   2.428   0.709 -1.4979 -0.8448  1.4587
  290SOL     OW  688   0.457   3.845   4.134  0.3277 -0.0564 -0.5682
  290SOL    HW1  689   0.397   3.812   4.207 -1.1067  0.9650 -1.2201
  290SOL    HW2  690   0.422   3.813   4.046  3.3135 -3.2141 -0.7913
  291SOL     OW  691   3.674   1.720   4.015 -0.4199  0.0081 -0.9140
  291SOL    HW1  692   3.756   1.723   3.958 -0.6128  0.3528 -1.1740
  291SOL    HW2  693   3.697   1.752   4.107 -1.0863  4.3016 -2.0143
  292SOL     OW  694   2.928   0.890   4.867  0.8671 -0.3362  0.3894
  292SOL    HW1  695   2.985   0.940   4.932  2.6626 -0.2465 -1.1553
  292SOL    HW2  696   2.839   0.934   4.859  0.7600 -0.0859  2.3890
  293SOL     OW  697   4.773   0.258   3.687  0.0418  0.0484  0.1082
  293SOL    HW1  698   4.843   0.291   3.624  1.1589  0.9084  1.7211
  293SOL    HW2  699   4.791   0.294   3.778 -1.8827 -0.6424  0.8090
  294SOL     OW  700   4.302   3.646   2.675  0.7231 -0.1295 -0.5674
  294SOL    HW1  701   4.229   3.633   2.608 -0.0988 -3.2939  0.7382
  294SOL    HW2  702   4.391   3.636   2.630  0.2405 -0.4795 -1.4674
  295SOL     OW  703   0.902   2.027   4.880 -0.2422  0.7552 -0.4077
  295SOL    HW1  704   0.809   1.995   4.895  0.6287 -2.8202 -1.6531
  295SOL    HW2  705   0.945   2.048   4.968 -1.1845 -0.8395  0.4576
  296SOL     OW  706   1.300   4.786   4.443  0.0723 -0.2249  0.8357
  296SOL    HW1  707   1.230   4.722   4.411  1.1943 -0.4298 -1.3951
  296SOL    HW2  708   1.287   4.803   4.541 -2.2525 -1.2745  0.7819
  297SOL     OW  709   1.410   1.807   0.121  0.0899  0.4613 -0.0495
  297SOL    HW1  710   1.494   1.769   0.161  1.0809  3.6971  1.2351
  297SOL    HW2  711   1.382   1.749   0.044  3.2796 -0.9878 -0.3277
  298SOL     OW  712   1.075   4.595   2.987 -0.2681 -0.3130 -0.5754
  298SOL    HW1  713   1.099   4.505   3.022  0.4968 -0.0406 -0.3678
  298SOL    HW2  714   1.153   4.634   2.939  0.5562  1.5167  1.9943
  299SOL     OW  715   2.969   3.778   0.424 -0.0507 -0.3524 -0.4922
  299SOL    HW1  716   3.046   3.721   0.392 -0.1637 -1.1271  0.5693
  299SOL    HW2  717   2.964   3.774   0.523 -2.2714 -1.3879 -0.5881
  300SOL     OW  718   1.366   4.011   4.694 -0.0364 -0.0758  0.6991
  300SOL    HW1  719   1.428   3.956   4.639 -1.1215  0.0507 -0.7148
  300SOL    HW2  720   1.373   4.107   4.666  0.3316  0.1932  1.6892
  301SOL     OW  721   3.442   2.406   1.853  0.5586 -0.5374  0.1127
  301SOL    HW1  722   3.370   2.462   1.813  0.8991  0.3785  0.7534
  301SOL    HW2  723   3.485   2.350   1.782  2.0641  2.0062 -1.1306
  302SOL     OW  724   2.721   4.828   2.083  0.1144 -0.4441 -0.2597
  302SOL    HW1  725   2.747   4.800   2.175  2.2263  1.4772 -0.1913
  302SOL    HW2  726   2.711   4.747   2.025  1.1455 -1.5610  1.0537
  303SOL     OW  727   0.282   2.526   0.776 -0.0019 -0.0349 -0.0254
  303SOL    HW1  728   0.225   2.593   0.824  1.1073  0.1475  1.1038
  303SOL    HW2  729   0.373   2.565   0.760  0.2595 -0.8164 -0.5276
  304SOL     OW  730   2.340   3.173   0.366 -0.0635 -0.3314  0.0155
  304SOL    HW1  731   2.425   3.224   0.350 -0.2476 -0.2682 -0.7807
  304SOL    HW2  732   2.355   3.108   0.441  0.4322  0.2671  0.4530
  305SOL     OW  733   0.988   3.872   2.976 -0.0078 -0.2047 -0.0679
  305SOL    HW1  734   0.943   3.947   3.026  2.1515 -0.0750  1.8591
  305SOL    HW2  735   0.989   3.790   3.033 -0.3122 -1.0468 -1.2409
  306SOL     OW  736   3.416   0.131   2.758 -0.1644 -0.5444  0.5214
  306SOL    HW1  737   3.424   0.225   2.789 -2.8842  0.2537 -0.9065
  306SOL    HW2  738   3.495   0.079   2.789  0.3087  1.6124  3.3259
  307SOL     OW  739   3.323   2.128   3.610 -0.2921  0.0142 -0.4102
  307SOL    HW1  740   3.410   2.091   3.577  0.3662  1.3547 -0.2535
  307SOL    HW2  741   3.267   2.155   3.531  0.0327  0.4626 -0.4899
  308SOL     OW  742   2.168   0.923   2.398 -0.1114  0.4601 -0.0791
  308SOL    HW1  743   2.167   0.952   2.494  0.2251  0.3279 -0.0311
  308SOL    HW2  744   2.248   0.963   2.352  0.0746  0.0264 -0.1404
  309SOL     OW  745   4.456   2.791   4.480  1.1162  0.2796 -0.2297
  309SOL    HW1  746   4.415   2.790   4.389  2.2758  2.6112 -0.8520
  309SOL    HW2  747   4.535   2.729   4.482  0.8240 -0.1150 -0.6344
  310SOL     OW  748   2.674   2.256   1.329 -0.7125 -0.0542 -0.2083
  310SOL    HW1  749   2.726   2.333   1.291  0.2409 -1.3005 -1.5595
  310SOL    HW2  750   2.580   2.261   1.297 -0.4903  0.1964 -0.8607
  311SOL     OW  751   1.272   2.657   0.915 -0.0858 -0.5819 -0.3306
  311SOL    HW1  752   1.233   2.625   1.002  0.3781  0.0798  0.1322
  311SOL    HW2  753   1.199   2.690   0.856 -0.5920 -2.4368 -0.8243
  312SOL     OW  754   1.134   2.441   3.244 -1.1559 -0.2287 -0.2761
  312SOL    HW1  755   1.145   2.360   3.301  1.1071  0.8133  0.9345
  312SOL    HW2  756   1.207   2.445   3.176 -1.0326  0.9406 -0.1027
  313SOL     OW  757   3.013   4.542   1.418 -0.1764 -0.2625 -0.7240
  313SOL    HW1  758   2.923   4.557   1.460  1.4407  0.5535  2.7865
  313SOL    HW2  759   3.052   4.630   1.392  1.1148 -0.1606  1.3663
  314SOL     OW  760   1.937   0.801   4.543 -0.5214  0.1463 -0.2893
  314SOL    HW1  761   1.858   0.857   4.518 -1.0620  0.3752  1.7280
  314SOL    HW2  762   1.919   0.755   4.630  2.0828  1.3587  1.0113
  315SOL     OW  763   0.702   2.818   0.983  0.3859  0.3038  0.3993
  315SOL    HW1  764   0.778   2.788   1.042  0.9900 -0.0940 -0.5550
  315SOL    HW2  765   0.624   2.757   0.995  0.8932 -0.4399 -0.0111
  316SOL     OW  766   0.364   1.372   1.599  0.0099  0.4901  0.5315
  316SOL    HW1  767   0.397   1.466   1.601 -0.7879  1.1126 -4.1716
  316SOL    HW2  768   0.272   1.368   1.638 -0.6719  2.1216 -0.7698
  317SOL     OW  769   3.247   4.664   3.976 -0.3059  0.0537  0.1425
  317SOL    HW1  770   3.342   4.638   3.996 -0.3103 -1.0833 -1.2001
  317SOL    HW2  771   3.185   4.610   4.034 -0.1511  0.9070  1.1318
  318SOL     OW  772   2.492   2.802   1.668  0.4910  0.0006  0.2856
  318SOL    HW1  773   2.524   2.829   1.759  2.3901  0.2929 -0.4155
  318SOL    HW2  774   2.465   2.706   1.670  1.8514 -0.4057  0.8838
  319SOL     OW  775   4.986   0.142   1.532  0.3149 -0.3914 -0.1907
  319SOL    HW1  776   5.053   0.212   1.555  0.2701 -0.3491 -0.1893
  319SOL    HW2  777   5.022   0.052   1.557  0.8676 -0.4881 -1.2563
  320SOL     OW  778   3.845   1.796   2.762  0.0356  0.0809  0.5157
  320SOL    HW1  779   3.775   1.724   2.768  0.4012 -0.3654 -0.4265
  320SOL    HW2  780   3.900   1.782   2.680 -0.3742  1.8824 -0.1229
  321SOL     OW  781   4.063   4.026   0.375 -0.8237 -0.5207 -0.2266
  321SOL    HW1  782   4.146   4.050   0.325 -1.0960  2.0574  0.4221
  321SOL    HW2  783   4.082   4.026   0.473 -1.1607 -1.8313 -0.1462
  322SOL     OW  784   1.500   0.509   2.120 -0.4811 -0.5139  0.1241
  322SOL    HW1  785   1.590   0.466   2.113  0.2885  0.8010  1.3603
  322SOL    HW2  786   1.499   0.594   2.067 -0.7144 -0.1170  0.7492
  323SOL     OW  787   4.169   1.357   4.679  0.8661  0.3228  0.2799
  323SOL    HW1  788   4.211   1.267   4.663  0.6562  0.3618 -0.4956
  323SOL    HW2  789   4.115   1.353   4.764  0.5256 -0.4052  0.0387
  324SOL     OW  790   4.461   0.699   1.149  0.2299  1.0787 -0.1448
  324SOL    HW1  791   4.361   0.698   1.152  0.1142 -3.1429  0.8373
  324SOL    HW2  792   4.497   0.700   1.242  1.0150  0.5332 -0.4322
  325SOL     OW  793   3.600   0.902   0.534 -0.5121  0.0328 -0.2915
  325SOL    HW1  794   3.502   0.919   0.541 -0.2752  1.7865 -0.7291
  325SOL    HW2  795   3.641   0.968   0.472  1.0167 -0.4239  0.1844
  326SOL     OW  796   0.816   0.244   2.324  0.3752  0.2528  0.0190
  326SOL    HW1  797   0.883   0.252   2.398  0.8357 -0.3106 -0.3318
  326SOL    HW2  798   0.724   0.254   2.362  0.6515  1.1206  0.4885
  327SOL     OW  799   1.886   3.959   4.240 -0.7286 -0.7733  0.0077
  327SOL    HW1  800   1.986   3.966   4.246 -0.7361 -1.6701  1.8941
  327SOL    HW2  801   1.858   3.963   4.144  0.8747  2.1386 -0.4553
  328SOL     OW  802   2.970   3.095   4.787 -0.5477 -0.0520 -0.0412
  328SOL    HW1  803   3.017   3.007   4.785 -1.4395 -0.5456 -0.0597
  328SOL    HW2  804   3.011   3.153   4.858  1.7712  0.5490 -1.7730
  329SOL     OW  805   1.882   1.216   3.495 -0.0138  0.2122  0.5576
  329SOL    HW1  806   1.870   1.152   3.571 -0.0227  0.1518  0.5055
  329SOL    HW2  807   1.969   1.265   3.506 -0.1635  0.4317  0.7743
  330SOL     OW  808   3.879   1.709   2.154  0.1712 -0.0055 -0.2010
  330SOL    HW1  809   3.871   1.809   2.161 -1.5026 -0.1570  0.5797
  330SOL    HW2  810   3.919   1.685   2.066  1.1028  1.3637 -0.1890
  331SOL     OW  811   4.034   2.148   4.711 -0.1584 -0.0017 -0.2838
  331SOL    HW1  812   3.974   2.189   4.780 -0.2957 -0.0986 -0.3468
  331SOL    HW2  813   3.980   2.119   4.633 -0.0133  0.0236 -0.3942
  332SOL     OW  814   4.210   0.061   4.145  0.0129 -0.2283 -0.0348
  332SOL    HW1  815   4.296   0.020   4.177  0.2610 -1.1093 -1.6918
  332SOL    HW2  816   4.137   0.041   4.209  0.8648 -0.1894  0.9794
  333SOL     OW  817   1.902   1.695   3.925  0.3626  0.3090  0.2548
  333SOL    HW1  818   1.938   1.672   3.834  1.0950  0.8306  0.4093
  333SOL    HW2  819   1.803   1.684   3.924  0.4342 -0.3940 -0.4029
  334SOL     OW  820   3.809   1.369   3.838 -0.0282 -0.7984  0.3670
  334SOL    HW1  821   3.720   1.335   3.807 -0.3083 -0.9161  1.2722
  334SOL    HW2  822   3.795   1.445   3.901  0.4198 -1.8958  1.8545
  335SOL     OW  823   2.387   0.085   4.385 -0.3442  0.7656 -0.8627
  335SOL    HW1  824   2.353   0.170   4.425  0.9845  0.4284  1.1053
  335SOL    HW2  825   2.384   0.012   4.454  0.3796 -0.3103 -1.9215
  336SOL     OW  826   0.494   3.016   0.499  1.0317  0.2334 -0.0754
  336SOL    HW1  827   0.582   2.968   0.500  1.1170  0.3879  0.5072
  336SOL    HW2  828   0.453   3.010   0.408  1.2190 -0.6120 -0.1103
  337SOL     OW  829   3.132   4.255   0.022 -0.1505 -0.4702 -0.5328
  337SOL    HW1  830   3.093   4.228  -0.066 -0.8022  0.3103 -0.4958
  337SOL    HW2  831   3.230   4.239   0.021  0.1128  0.9896 -1.9821
  338SOL     OW  832   4.184   4.603   2.472  0.1764 -0.4563  0.5549
  338SOL    HW1  833   4.181   4.680   2.535  2.9333  0.3516 -0.1668
  338SOL    HW2  834   4.128   4.623   2.391  0.6746  0.7020  0.4843
  339SOL     OW  835   4.482   0.356   4.012 -0.2186 -0.2278 -0.0784
  339SOL    HW1  836   4.386   0.341   3.991 -0.1929  0.1601 -0.4993
  339SOL    HW2  837   4.538   0.310   3.943 -0.1170  0.2739 -0.3344
  340SOL     OW  838   1.890   4.161   1.612 -0.5566  0.4765  0.0446
  340SOL    HW1  839   1.876   4.134   1.516 -0.0432 -1.8266  0.5509
  340SOL    HW2  840   1.825   4.112   1.670  1.7532 -1.3348  1.2453
  341SOL     OW  841   1.590   4.168   0.078 -0.3982 -0.4401 -0.0512
  341SOL    HW1  842   1.634   4.086   0.042 -0.3049 -0.6381  0.5114
  341SOL    HW2  843   1.505   4.143   0.124 -2.4251  0.1502 -3.1417
  342SOL     OW  844   1.087   2.806   0.465 -0.6445 -0.2850  0.2406
  342SOL    HW1  845   1.182   2.802   0.435 -1.3143 -0.1222 -2.1090
  342SOL    HW2  846   1.028   2.771   0.392 -2.5320  1.5375  0.8036
  343SOL     OW  847   0.712   2.445   4.724  0.2578 -0.5450  0.2291
  343SOL    HW1  848   0.642   2.452   4.652  1.3267 -0.9000 -0.8870
  343SOL    HW2  849   0.699   2.360   4.775  0.0540 -0.7558 -0.1695
  344SOL     OW  850   1.321   2.983   4.935  0.7021  0.0128 -0.1559
  344SOL    HW1  851   1.319   3.048   4.859  1.7577 -1.3356 -1.3932
  344SOL    HW2  852   1.243   2.999   4.995 -0.8033  0.3997 -2.1413
  345SOL     OW  853   1.120   0.590   3.432 -0.5338  0.4373  0.2244
  345SOL    HW1  854   1.147   0.495   3.451  0.6282  0.4689 -1.0624
  345SOL    HW2  855   1.087   0.596   3.337 -0.4115  1.3551  0.2338
  346SOL     OW  856   4.687   2.862   2.064  0.2167 -0.5137 -0.3333
  346SOL    HW1  857   4.636   2.821   1.988 -1.7896  0.0407  0.6535
  346SOL    HW2  858   4.625   2.917   2.120  2.1257  1.0423  0.3678
  347SOL     OW  859   3.386   3.037   1.370 -0.1406 -0.0398 -0.0114
  347SOL    HW1  860   3.423   2.958   1.419 -1.3890 -0.0238  0.9980
  347SOL    HW2  861   3.429   3.043   1.280  0.7154 -1.2665  0.2909
  348SOL     OW  862   4.866   2.553   3.750  0.4912 -0.2401  0.3613
  348SOL    HW1  863   4.882   2.553   3.848 -2.3487 -1.9949  0.9330
  348SOL    HW2  864   4.831   2.642   3.721  0.3645 -0.0410  1.1269
  349SOL     OW  865   0.616   0.076   3.021  0.1603 -0.4013 -0.1039
  349SOL    HW1  866   0.522   0.097   3.049 -0.2969  0.4102 -2.0703
  349SOL    HW2  867   0.680   0.130   3.076 -0.6508  0.6420 -0.1467
  350SOL     OW  868   4.830   1.128   4.178  0.1968  0.3761 -0.0318
  350SOL    HW1  869   4.783   1.215   4.164  0.9023  0.6797 -0.5762
  350SOL    HW2  870   4.782   1.075   4.248 -1.1159  0.5456 -0.7697
  351SOL     OW  871   4.606   0.399   1.936 -0.5027 -0.1797 -0.1059
  351SOL    HW1  872   4.619   0.492   1.901  1.7054 -0.0313  0.9355
  351SOL    HW2  873   4.645   0.333   1.871  0.5008 -0.1433  0.4357
  352SOL     OW  874   3.407   3.317   4.775 -0.8384  0.6461 -0.0565
  352SOL    HW1  875   3.423   3.283   4.682  3.0762 -0.7432  0.9145
  352SOL    HW2  876   3.475   3.388   4.796 -2.2514  1.6037  1.4835
  353SOL     OW  877   0.121   2.909   3.702 -0.4691 -0.2106 -0.1067
  353SOL    HW1  878   0.076   2.880   3.786  0.1414  0.9108  0.6348
  353SOL    HW2  879   0.120   3.009   3.697  0.7670 -0.2116 -0.7080
  354SOL     OW  880   4.925   4.718   3.306  0.0985  0.4711 -0.2362
  354SOL    HW1  881   4.928   4.812   3.272  2.7345  1.2071  1.6992
  354SOL    HW2  882   4.929   4.655   3.229  1.5191  1.9988 -1.5066
  355SOL     OW  883   4.501   1.023   1.666 -0.5013  0.0113  0.0877
  355SOL    HW1  884   4.510   1.035   1.764  0.8174 -1.2343  0.1536
  355SOL    HW2  885   4.459   1.104   1.626 -2.0971  0.0908  1.7972
  356SOL     OW  886   4.760   4.074   3.531  0.3940  0.3079  0.4265
  356SOL    HW1  887   4.838   4.032   3.485  0.5035 -1.0032  1.7482
  356SOL    HW2  888   4.717   4.140   3.470  2.8167  1.4583 -0.1909
  357SOL     OW  889   2.375   2.164   2.496  0.3575 -0.0711 -0.0590
  357SOL    HW1  890   2.369   2.234   2.567  0.2874 -0.2943  0.1547
  357SOL    HW2  891   2.380   2.073   2.538 -0.0056 -0.2258 -0.3422
  358SOL     OW  892   1.640   2.581   2.569 -0.1174 -0.4888 -0.2304
  358SOL    HW1  893   1.630   2.489   2.531 -1.0022  0.4899 -2.5479
  358SOL    HW2  894   1.735   2.610   2.561  0.5306 -1.7223  1.9939
  359SOL     OW  895   1.715   0.379   4.767 -0.1213 -0.6667  1.0317
  359SOL    HW1  896   1.630   0.362   4.817 -0.7146  0.1973  0.3374
  359SOL    HW2  897   1.705   0.349   4.672  0.4182 -0.7285  0.9895
  360SOL     OW  898   4.550   1.985   0.208  0.1737  0.0103 -0.3393
  360SOL    HW1  899   4.641   1.964   0.244  0.3076  0.9508 -0.0943
  360SOL    HW2  900   4.535   2.084   0.211  0.3811  0.2271 -3.3189
  361SOL     OW  901   0.262   1.307   1.351  0.2717  0.1082  0.5306
  361SOL    HW1  902   0.271   1.325   1.449  2.1205 -0.7640  0.5628
  361SOL    HW2  903   0.352   1.306   1.308 -0.3697 -1.0355 -0.8991
  362SOL     OW  904   0.722   2.064   4.196  0.1222  0.4670  0.2967
  362SOL    HW1  905   0.686   2.147   4.240 -0.4221 -0.3591  1.4742
  362SOL    HW2  906   0.742   1.996   4.266  2.1136  0.1551 -0.5056
  363SOL     OW  907   0.866   3.074   4.699 -0.2427  0.1928  0.4093
  363SOL    HW1  908   0.851   3.172   4.710  1.1824  1.1590 -4.1468
  363SOL    HW2  909   0.778   3.026   4.704 -0.7917  1.2702  4.4291
  364SOL     OW  910   0.173   0.297   1.600  0.1831  0.0366 -0.0435
  364SOL    HW1  911   0.218   0.323   1.514 -0.5249 -0.6206 -0.6303
  364SOL    HW2  912   0.176   0.373   1.664  1.3035  0.3168 -0.4087
  365SOL     OW  913   1.341   4.241   2.514  0.0303  0.1691  0.0687
  365SOL    HW1  914   1.390   4.172   2.567 -2.6013 -1.1327  0.9930
  365SOL    HW2  915   1.320   4.204   2.423  1.9411  1.2869 -0.8916
  366SOL     OW  916   4.203   3.415   3.373 -0.0805  0.7761 -0.2926
  366SOL    HW1  917   4.216   3.509   3.342 -0.6662  1.7139  2.1096
  366SOL    HW2  918   4.116   3.380   3.338 -0.4794  1.6074 -0.1450
  367SOL     OW  919   2.667   1.612   4.800  0.5107  0.2784 -0.7662
  367SOL    HW1  920   2.711   1.534   4.844 -1.8231 -0.5937  0.1933
  367SOL    HW2  921   2.676   1.693   4.859  0.8919  0.1484 -0.6409
  368SOL     OW  922   0.553   0.416   0.683 -0.2520 -0.4070  0.0829
  368SOL    HW1  923   0.645   0.439   0.650 -0.1136  0.0123  0.7366
  368SOL    HW2  924   0.499   0.500   0.693 -0.0415 -0.4257  1.6185
  369SOL     OW  925   0.636   3.506   1.768 -0.0021  0.0415 -0.3229
  369SOL    HW1  926   0.720   3.555   1.791 -0.0269 -0.1528  0.1864
  369SOL    HW2  927   0.599   3.542   1.682  0.7750 -0.0931 -0.7216
  370SOL     OW  928   1.274   2.088   0.441 -0.0248 -0.4477 -0.5184
  370SOL    HW1  929   1.276   2.050   0.534 -1.1553  1.5529  0.3748
  370SOL    HW2  930   1.236   2.019   0.378 -0.7544 -1.2820  0.7869
  371SOL     OW  931   0.664   2.103   0.355  0.2003 -0.0731 -0.4125
  371SOL    HW1  932   0.662   2.086   0.256 -1.2478  1.0335 -0.6021
  371SOL    HW2  933   0.696   2.196   0.372 -3.3212  1.2632 -0.1605
  372SOL     OW  934   3.017   3.162   3.931 -0.1505  0.0481 -0.3179
  372SOL    HW1  935   3.101   3.188   3.885 -0.6460  1.6841 -0.3568
  372SOL    HW2  936   2.949   3.235   3.921 -1.6858 -1.3303 -0.5295
  373SOL     OW  937   3.862   3.535   2.504 -0.1066 -0.8432  0.2737
  373SOL    HW1  938   3.822   3.563   2.417  1.4054  1.5234  0.2480
  373SOL    HW2  939   3.849   3.608   2.572  0.5078 -1.7875  1.4379
  374SOL     OW  940   2.129   4.747   1.041  0.0757  0.1940 -0.1702
  374SOL    HW1  941   2.163   4.663   0.997 -0.2232 -0.1693  0.2921
  374SOL    HW2  942   2.118   4.818   0.971  1.7180  0.3109 -0.3576
  375SOL     OW  943   4.419   1.428   2.530  0.0421  0.2397 -0.2896
  375SOL    HW1  944   4.385   1.348   2.580  0.8775 -0.3231 -0.5882
  375SOL    HW2  945   4.392   1.421   2.434  0.7098 -0.0586 -0.4650
  376SOL     OW  946   1.738   0.303   3.845 -0.1171  0.2433  0.1560
  376SOL    HW1  947   1.722   0.324   3.749 -2.6646  0.3511  0.5156
  376SOL    HW2  948   1.650   0.296   3.892  0.7324 -4.4596  1.5617
  377SOL     OW  949   2.623   0.488   1.742  0.5340  0.5518 -0.3864
  377SOL    HW1  950   2.648   0.576   1.783  1.3747 -0.0893  0.5360
  377SOL    HW2  951   2.700   0.425   1.750 -0.6767 -0.8782  0.7506
  378SOL     OW  952   2.939   4.160   1.618 -0.4565  0.1350 -0.2452
  378SOL    HW1  953   2.865   4.224   1.597  1.1958  1.9089 -1.0200
  378SOL    HW2  954   3.015   4.175   1.553  1.2534 -0.4126  1.5350
  379SOL     OW  955   4.035   2.458   4.196  0.4194  0.6846  0.0302
  379SOL    HW1  956   4.027   2.538   4.136  0.4138 -0.2857 -1.3009
  379SOL    HW2  957   4.085   2.386   4.149  0.1067 -0.2384  1.0750
  380SOL     OW  958   3.172   2.141   3.393  0.4993  0.0611  0.1539
  380SOL    HW1  959   3.074   2.153   3.409  0.3826  2.4038 -1.7784
  380SOL    HW2  960   3.188   2.123   3.296  2.1340  3.5443 -0.3740
  381SOL     OW  961   0.965   1.026   1.957  0.4521 -0.1300  0.2768
  381SOL    HW1  962   0.887   1.072   1.999 -0.7966 -2.0249  0.1471
  381SOL    HW2  963   1.004   1.084   1.885  0.6236  1.7926  1.8418
  382SOL     OW  964   3.643   0.456   3.266 -0.4329 -0.7214 -0.5707
  382SOL    HW1  965   3.656   0.545   3.223  1.5325 -0.7969 -0.2398
  382SOL    HW2  966   3.552   0.421   3.245 -1.6372  1.8001  0.1265
  383SOL     OW  967   3.809   0.488   0.388  0.8787  0.4407  0.1410
  383SOL    HW1  968   3.734   0.505   0.325  0.3206  0.3082  0.7559
  383SOL    HW2  969   3.824   0.389   0.396  1.5057  0.4846 -0.4194
  384SOL     OW  970   0.686   2.295   2.649 -0.2113 -0.1467 -0.0774
  384SOL    HW1  971   0.719   2.334   2.562 -0.4725 -1.3198 -0.7230
  384SOL    HW2  972   0.663   2.199   2.635 -1.0680 -0.1262  1.0979
  385SOL     OW  973   3.420   2.355   2.454  0.1033 -0.8977  0.0902
  385SOL    HW1  974   3.492   2.367   2.522  0.1380  2.0266 -0.3509
  385SOL    HW2  975   3.462   2.354   2.362 -0.3235 -0.1230 -0.1175
  386SOL     OW  976   1.085   0.465   2.985  0.3179 -0.2285 -0.0562
  386SOL    HW1  977   1.014   0.412   3.032 -0.4757  0.1750 -0.7648
  386SOL    HW2  978   1.110   0.543   3.043 -0.3135  0.0039 -0.0828
  387SOL     OW  979   0.254   1.178   4.704  0.1765 -0.5900 -0.2191
  387SOL    HW1  980   0.154   1.192   4.703  0.3072  0.5797 -1.9432
  387SOL    HW2  981   0.275   1.089   4.744 -1.3951  0.0378  2.2857
  388SOL     OW  982   4.489   0.042   0.216 -0.1264  0.0028  0.0214
  388SOL    HW1  983   4.569   0.100   0.200 -0.7645  1.2351  1.0465
  388SOL    HW2  984   4.412   0.099   0.245 -1.9400 -0.9213 -2.6196
  389SOL     OW  985   2.675   3.518   3.122 -0.1582 -0.6477 -0.0193
  389SOL    HW1  986   2.617   3.586   3.168 -0.9069 -1.0751 -0.3198
  389SOL    HW2  987   2.768   3.553   3.117 -0.6796  0.7113 -0.8627
  390SOL     OW  988   1.436   3.063   0.351  0.6362  0.7236  0.4400
  390SOL    HW1  989   1.526   3.032   0.384  0.3009 -2.1601 -1.0125
  390SOL    HW2  990   1.443   3.090   0.255 -0.2142 -0.5750 -0.0088
  391SOL     OW  991   1.956   1.727   4.772  0.1070  0.1505 -0.8992
  391SOL    HW1  992   1.995   1.668   4.842  0.3332  1.7457  0.3775
  391SOL    HW2  993   1.867   1.761   4.802  0.2215  0.8820 -1.3625
  392SOL     OW  994   1.136   1.386   4.941  0.2689 -0.9444 -0.9571
  392SOL    HW1  995   1.072   1.454   4.906 -0.5976 -1.2032  0.0838
  392SOL    HW2  996   1.212   1.377   4.878 -0.1985  0.1253 -1.7030
  393SOL     OW  997   0.142   0.862   1.568  0.3669 -0.8014  0.4003
  393SOL    HW1  998   0.184   0.931   1.626  1.3025 -0.3034 -0.8114
  393SOL    HW2  999   0.213   0.801   1.533 -0.1755 -1.1086 -0.1730
  394SOL     OW 1000   2.209   3.003   1.212  0.2509  0.2162 -0.0469
  394SOL    HW1 1001   2.136   2.940   1.185  0.5491 -0.4910  0.7218
  394SOL    HW2 1002   2.243   2.977   1.302  1.4666  0.5179 -0.3975
  395SOL     OW 1003   0.683   1.257   4.725  0.0037 -0.2041 -0.3564
  395SOL    HW1 1004   0.717   1.163   4.730  0.3924 -0.4561 -4.3142
  395SOL    HW2 1005   0.731   1.313   4.792  0.2653 -2.6428  1.6540
  396SOL     OW 1006   2.710   1.402   2.653 -0.6088  1.0098  0.1871
  396SOL    HW1 1007   2.722   1.304   2.671 -0.0034  1.0639  0.1025
  396SOL    HW2 1008   2.797   1.441   2.622 -1.1813  1.2997 -1.0901
  397SOL     OW 1009   1.505   1.160   2.455 -0.4019  0.0518 -0.1598
  397SOL    HW1 1010   1.593   1.182   2.496 -1.1248  0.1667  1.4224
  397SOL    HW2 1011   1.480   1.231   2.390  1.7671 -1.2278 -2.5623
  398SOL     OW 1012   4.947   4.304   0.258 -0.0777  0.6302 -0.0699
  398SOL    HW1 1013   4.848   4.297   0.249  0.1074  0.3757 -3.0044
  398SOL    HW2 1014   4.984   4.215   0.286 -0.6583  0.8921  1.6684
  399SOL     OW 1015   1.115   4.922   1.434 -0.3695  0.0570  0.1250
  399SOL    HW1 1016   1.115   4.990   1.507  2.3702  0.8840 -0.5385
  399SOL    HW2 1017   1.136   4.832   1.473  0.6217  0.4123  0.4247
  400SOL     OW 1018   2.999   3.360   3.125 -0.1989 -0.2063 -0.6405
  400SOL    HW1 1019   2.927   3.369   3.194  0.7023  1.2891  0.1460
  400SOL    HW2 1020   2.969   3.401   3.039 -0.2523  0.5006 -0.2875
  401SOL     OW 1021   1.002   1.713   0.432 -0.0475  0.2644  0.3660
  401SOL    HW1 1022   1.013   1.771   0.513 -0.4921  0.5750  0.2073
  401SOL    HW2 1023   0.938   1.639   0.452  0.4385 -0.1150  0.5356
  402SOL     OW 1024   2.143   4.085   2.555  0.3061 -0.2577 -0.4194
  402SOL    HW1 1025   2.149   4.050   2.648 -1.6591  0.6202  0.1046
  402SOL    HW2 1026   2.080   4.028   2.502 -2.3076  1.8052  0.2243
  403SOL     OW 1027   2.629   2.917   1.042  0.0483  0.6343  0.5849
  403SOL    HW1 1028   2.618   2.831   1.092  1.6065  0.4332  0.6264
  403SOL    HW2 1029   2.539   2.960   1.030 -0.9076 -1.5169 -0.4273
  404SOL     OW 1030   0.162   0.531   3.343 -0.4367  0.1024  0.7671
  404SOL    HW1 1031   0.178   0.552   3.440  0.2664 -1.1110  0.9233
  404SOL    HW2 1032   0.193   0.438   3.323  1.5939  1.0936 -1.1498
  405SOL     OW 1033   2.501   4.956   4.600 -0.1615 -0.1534  0.2690
  405SOL    HW1 1034   2.509   5.027   4.670 -0.6195  0.2242 -0.0577
  405SOL    HW2 1035   2.511   4.866   4.643  1.2776  0.1209  0.5560
  406SOL     OW 1036   3.164   3.694   3.511  0.6191 -0.0978  0.3678
  406SOL    HW1 1037   3.147   3.607   3.464  0.4602 -1.0343  2.0799
  406SOL    HW2 1038   3.232   3.746   3.461 -0.5625 -0.3842 -1.6757
  407SOL     OW 1039   0.180   1.111   3.520  0.1871  0.7275  0.0512
  407SOL    HW1 1040   0.274   1.079   3.518  0.4392  1.2748  1.4780
  407SOL    HW2 1041   0.164   1.161   3.605 -1.4245  0.5440 -0.1051
  408SOL     OW 1042   0.459   2.259   4.656  0.1390 -0.1701 -0.3038
  408SOL    HW1 1043   0.418   2.199   4.725 -0.0282  0.6358  0.3218
  408SOL    HW2 1044   0.539   2.215   4.616  0.5357 -0.4597  0.7772
  409SOL     OW 1045   0.588   3.829   2.828 -0.1844 -0.9864  0.4331
  409SOL    HW1 1046   0.576   3.892   2.905 -2.0281 -1.4171  0.5326
  409SOL    HW2 1047   0.679   3.844   2.787 -0.0344  0.7609  1.3075
  410SOL     OW 1048   1.212   0.072   2.112 -0.4344  0.9132 -0.2420
  410SOL    HW1 1049   1.138   0.134   2.138 -2.5942 -1.3958 -0.5346
  410SOL    HW2 1050   1.199   0.041   2.019  0.8168  0.2720 -0.2246
  411SOL     OW 1051   3.505   3.670   4.586 -0.3300  0.4486  0.1483
  411SOL    HW1 1052   3.598   3.692   4.616  0.0243 -1.1719  0.3384
  411SOL    HW2 1053   3.441   3.692   4.660  0.2205 -0.8492  1.0559
  412SOL     OW 1054   1.640   3.077   4.834 -0.5320  0.3214  0.5950
  412SOL    HW1 1055   1.643   2.977   4.837 -0.2717  0.2760 -0.6712
  412SOL    HW2 1056   1.732   3.114   4.849 -0.4292  0.3241 -0.0179
  413SOL     OW 1057   0.752   3.311   4.717  0.8860 -0.0016  0.2394
  413SOL    HW1 1058   0.772   3.332   4.621 -1.0199 -0.1291 -0.2271
  413SOL    HW2 1059   0.803   3.373   4.776  2.9833 -0.6614 -0.7917
  414SOL     OW 1060   4.957   1.230   2.564  0.2136 -0.2534 -0.2369
  414SOL    HW1 1061   4.967   1.329   2.568  0.5607 -0.3358  1.7644
  414SOL    HW2 1062   5.021   1.187   2.627 -1.4657 -1.6449  0.5995
  415SOL     OW 1063   4.817   4.225   2.576 -0.0266 -0.6358  0.1569
  415SOL    HW1 1064   4.794   4.152   2.640  0.4393 -0.6513  0.3100
  415SOL    HW2 1065   4.816   4.189   2.483 -0.1264 -0.7551  0.2032
  416SOL     OW 1066   1.038   3.685   4.230 -0.1700  0.3895 -0.5344
  416SOL    HW1 1067   1.120   3.733   4.198 -0.1933  3.0246  2.8491
  416SOL    HW2 1068   1.057   3.641   4.318 -1.4886 -2.0945 -1.3979
  417SOL     OW 1069   3.525   1.838   1.852 -0.0624  0.4223  0.0837
  417SOL    HW1 1070   3.590   1.763   1.866  1.3161  1.9571  2.6988
  417SOL    HW2 1071   3.477   1.856   1.938 -1.3419  1.7187 -0.8506
  418SOL     OW 1072   3.550   2.057   4.783 -0.2920  0.1841 -0.3559
  418SOL    HW1 1073   3.522   1.998   4.707  0.8181  0.9249 -1.3802
  418SOL    HW2 1074   3.622   2.119   4.752  0.6458  0.0845  1.4765
  419SOL     OW 1075   1.287   2.721   1.884 -0.2583 -0.3948 -0.5767
  419SOL    HW1 1076   1.348   2.685   1.814  0.0702 -0.2374 -0.3757
  419SOL    HW2 1077   1.312   2.681   1.973  0.1625  0.3877 -0.3373
  420SOL     OW 1078   1.361   3.405   4.081 -0.1353  0.3440  0.6212
  420SOL    HW1 1079   1.265   3.375   4.079 -0.1151  0.3244 -0.1967
  420SOL    HW2 1080   1.374   3.467   4.159 -0.6213 -0.2733  1.2130
  421SOL     OW 1081   3.488   4.319   3.236  0.1799  0.6928 -0.2083
  421SOL    HW1 1082   3.396   4.318   3.197  0.3427 -1.1038 -0.5924
  421SOL    HW2 1083   3.537   4.237   3.208  1.1731  0.5846  1.7269
  422SOL     OW 1084   2.045   2.865   2.322  0.6075 -0.5023  0.2405
  422SOL    HW1 1085   2.131   2.856   2.271  1.4407  0.0082  1.5048
  422SOL    HW2 1086   2.064   2.899   2.414 -0.7686 -2.0114  1.1499
  423SOL     OW 1087   0.272   4.411   3.247 -0.5136  0.0818  0.2738
  423SOL    HW1 1088   0.300   4.359   3.328  0.6451  3.1772  2.0461
  423SOL    HW2 1089   0.178   4.388   3.224 -1.0496 -0.6337  2.8003
  424SOL     OW 1090   0.582   3.853   1.490  0.0981  0.4088  1.6041
  424SOL    HW1 1091   0.504   3.794   1.509 -0.0532  0.4662  1.1821
  424SOL    HW2 1092   0.665   3.813   1.528  0.1449 -0.5249  0.5676
  425SOL     OW 1093   0.327   2.290   4.294  0.2540 -0.0757  0.4820
  425SOL    HW1 1094   0.266   2.264   4.370 -0.9299 -0.5803 -0.5999
  425SOL    HW2 1095   0.311   2.228   4.217  0.2497  1.4350 -0.7631
  426SOL     OW 1096   4.522   1.944   3.042 -0.1412  0.0377 -0.2911
  426SOL    HW1 1097   4.566   1.887   3.112  0.9615  1.7615  0.4913
  426SOL    HW2 1098   4.423   1.931   3.045 -0.2594  0.9668  2.4836
  427SOL     OW 1099   3.418   0.610   3.372  0.1788  0.2469 -0.6891
  427SOL    HW1 1100   3.417   0.528   3.314 -1.1136 -0.0564 -0.2780
  427SOL    HW2 1101   3.500   0.610   3.429  0.6037 -0.3303 -1.2869
  428SOL     OW 1102   3.988   1.221   1.638 -0.2169  0.4454  0.1920
  428SOL    HW1 1103   3.892   1.237   1.614 -0.4795  0.1301  1.0007
  428SOL    HW2 1104   4.005   1.123   1.646  0.1626  0.5031  0.1271
  429SOL     OW 1105   1.699   4.001   1.719  0.1085  0.1871 -0.1556
  429SOL    HW1 1106   1.604   3.970   1.705  0.5474 -1.5047  0.3429
  429SOL    HW2 1107   1.743   3.943   1.788  0.7421  2.5840  1.5938
  430SOL     OW 1108   2.376   1.995   0.725 -0.1288 -0.4529 -0.1496
  430SOL    HW1 1109   2.356   1.993   0.627  1.2361  3.7835 -0.7415
  430SOL    HW2 1110   2.475   1.992   0.739 -0.2485  0.2826  0.9710
  431SOL     OW 1111   4.907   3.959   2.350 -0.2052 -0.4537 -0.3932
  431SOL    HW1 1112   4.860   3.893   2.409  0.1045 -0.0553  0.3099
  431SOL    HW2 1113   4.845   4.035   2.330 -0.7715 -1.2170 -1.6974
  432SOL     OW 1114   4.083   0.629   1.386  0.1402  0.0937 -0.4209
  432SOL    HW1 1115   4.044   0.538   1.373 -0.0463  0.1684 -0.3920
  432SOL    HW2 1116   4.175   0.621   1.425 -0.2246 -0.0605  0.4393
  433SOL     OW 1117   1.390   1.368   4.794  0.5096 -0.2743 -0.4581
  433SOL    HW1 1118   1.358   1.386   4.701 -0.2340 -1.3272 -0.4174
  433SOL    HW2 1119   1.456   1.292   4.792 -0.8667 -1.5248  0.0668
  434SOL     OW 1120   3.520   3.567   2.259  0.2189 -0.1620  0.5491
  434SOL    HW1 1121   3.574   3.507   2.200 -2.2236 -1.1876 -0.8016
  434SOL    HW2 1122   3.443   3.515   2.297 -1.0788  1.7123  0.5927
  435SOL     OW 1123   0.392   3.644   2.488  0.0355 -0.1533 -0.2563
  435SOL    HW1 1124   0.448   3.624   2.569 -0.1668 -0.2432 -0.1375
  435SOL    HW2 1125   0.336   3.563   2.466 -2.8969  1.1019  1.8880
  436SOL     OW 1126   3.181   4.597   2.616 -0.2827  0.0138  0.3425
  436SOL    HW1 1127   3.089   4.590   2.577  0.0637 -1.1449 -0.3171
  436SOL    HW2 1128   3.191   4.685   2.662 -1.1110  0.9392 -1.1543
  437SOL     OW 1129   4.201   3.343   2.753 -0.2066  0.2006 -0.2606
  437SOL    HW1 1130   4.178   3.430   2.709 -1.1057  0.1633  0.1103
  437SOL    HW2 1131   4.118   3.290   2.766  0.2979 -0.5881 -0.1987
  438SOL     OW 1132   4.045   3.286   0.233 -0.9857  0.0668 -0.4162
  438SOL    HW1 1133   3.976   3.248   0.173 -1.5126  0.5546 -0.1299
  438SOL    HW2 1134   4.008   3.367   0.279  0.9770  2.6952 -3.1007
  439SOL     OW 1135   0.495   1.052   1.222 -0.1309 -0.2607  0.0602
  439SOL    HW1 1136   0.501   1.146   1.190  1.4694 -0.5632 -0.6354
  439SOL    HW2 1137   0.417   1.007   1.179  0.6635 -0.0131 -1.7267
  440SOL     OW 1138   2.921   4.339   1.894 -0.0362  0.8201 -0.4567
  440SOL    HW1 1139   2.864   4.276   1.842 -1.3486  1.8035 -0.2622
  440SOL    HW2 1140   2.947   4.416   1.836  0.8918  0.5099 -0.4654
  441SOL     OW 1141   0.527   0.821   1.375 -0.0435  0.0148  0.0807
  441SOL    HW1 1142   0.508   0.906   1.325 -0.8433 -1.8579 -3.0373
  441SOL    HW2 1143   0.622   0.796   1.364 -0.1521 -0.2527 -0.2391
  442SOL     OW 1144   2.601   1.614   4.539 -0.4964  0.1373 -0.4584
  442SOL    HW1 1145   2.605   1.629   4.637  1.7594 -0.4067 -0.4040
  442SOL    HW2 1146   2.515   1.570   4.515 -0.1892 -1.6979  1.5761
  443SOL     OW 1147   0.414   4.977   3.399 -0.0815  0.0085  0.7326
  443SOL    HW1 1148   0.342   5.012   3.340  0.4736  0.4073  0.2790
  443SOL    HW2 1149   0.453   4.894   3.359  0.0586  0.0845  0.7087
  444SOL     OW 1150   1.022   2.106   2.867 -0.1622  0.2764  0.1984
  444SOL    HW1 1151   1.077   2.092   2.785  0.3076 -0.2267  0.5949
  444SOL    HW2 1152   0.951   2.036   2.872  0.2969 -0.1575  0.6243
  445SOL     OW 1153   1.205   4.838   0.183  0.2119  0.0109  0.8010
  445SOL    HW1 1154   1.113   4.842   0.224 -0.0842 -0.4446  0.2013
  445SOL    HW2 1155   1.218   4.918   0.124  0.4360  0.3909  1.3604
  446SOL     OW 1156   2.042   1.534   3.405  0.2395  0.0463 -0.2993
  446SOL    HW1 1157   2.011   1.587   3.327 -1.5875 -0.1465  0.2432
  446SOL    HW2 1158   2.116   1.473   3.377  0.3514  0.7557 -1.6035
  447SOL     OW 1159   3.840   2.671   2.516 -0.2010  0.1147 -0.3387
  447SOL    HW1 1160   3.887   2.713   2.439 -1.6896  1.1683 -0.7105
  447SOL    HW2 1161   3.742   2.676   2.502 -0.4864 -0.3897  1.2639
  448SOL     OW 1162   2.816   3.437   2.423  0.1391 -0.6838  0.4379
  448SOL    HW1 1163   2.901   3.447   2.475  0.4673  1.0527 -0.3669
  448SOL    HW2 1164   2.837   3.443   2.325 -1.0379  1.1760  0.2546
  449SOL     OW 1165   3.961   1.430   0.978 -0.5283 -0.1670 -0.1116
  449SOL    HW1 1166   3.879   1.384   0.945 -0.8355 -0.1321  0.5715
  449SOL    HW2 1167   3.939   1.525   1.000 -0.7752 -0.6383  1.8213
  450SOL     OW 1168   3.199   0.476   2.785 -0.0649  0.1426 -0.7305
  450SOL    HW1 1169   3.121   0.479   2.846 -0.1486 -0.8073 -0.7760
  450SOL    HW2 1170   3.283   0.462   2.838 -0.0546  0.0175 -0.7810
  451SOL     OW 1171   4.450   4.753   4.815  0.6225 -0.5710 -0.0724
  451SOL    HW1 1172   4.444   4.818   4.892 -0.9316 -0.5969 -0.1547
  451SOL    HW2 1173   4.544   4.754   4.779  1.2718 -0.2225  1.5211
  452SOL     OW 1174   0.200   4.962   4.408 -0.5760  0.2189 -0.3538
  452SOL    HW1 1175   0.231   4.872   4.439 -0.3094 -0.7648 -3.1313
  452SOL    HW2 1176   0.115   4.987   4.455 -0.5574 -1.3972  0.6003
  453SOL     OW 1177   1.710   0.627   2.885  0.3620 -0.1554 -0.3243
  453SOL    HW1 1178   1.791   0.685   2.891  0.5232 -0.4588  0.7461
  453SOL    HW2 1179   1.655   0.653   2.806  1.3559  0.2435 -0.8949
  454SOL     OW 1180   0.459   0.716   4.033  0.4000  0.2460  0.9318
  454SOL    HW1 1181   0.542   0.683   3.988 -0.4385 -0.6291 -0.0256
  454SOL    HW2 1182   0.379   0.690   3.979 -0.3485  4.6675 -0.5600
  455SOL     OW 1183   1.309   4.715   2.513 -0.1177 -0.3370 -0.5075
  455SOL    HW1 1184   1.266   4.756   2.593 -2.0570  0.1808 -1.7561
  455SOL    HW2 1185   1.254   4.637   2.482 -0.3009  0.4241 -2.2290
  456SOL     OW 1186   0.942   2.202   1.962  0.2253 -0.5630 -0.0669
  456SOL    HW1 1187   1.003   2.271   2.001 -0.0409 -1.0309  1.2120
  456SOL    HW2 1188   0.875   2.247   1.902 -1.2382  0.6368  2.3068
  457SOL     OW 1189   4.912   3.129   1.528 -0.0183 -0.1854 -0.0874
  457SOL    HW1 1190   4.894   3.153   1.623  0.0102 -1.2184  0.1897
  457SOL    HW2 1191   4.912   3.029   1.518  0.2278 -0.0938 -1.1216
  458SOL     OW 1192   0.446   1.024   4.057  0.1125 -0.0887  0.4334
  458SOL    HW1 1193   0.417   0.932   4.084 -0.4294  0.4209  1.6797
  458SOL    HW2 1194   0.503   1.063   4.130  0.1285  0.6582  0.0249
  459SOL     OW 1195   1.481   4.924   1.459  0.6031 -0.0985 -0.0143
  459SOL    HW1 1196   1.449   4.967   1.374  0.4212 -1.6607 -0.7694
  459SOL    HW2 1197   1.577   4.947   1.474  1.9720 -3.0995 -2.9557
  460SOL     OW 1198   3.892   4.649   0.156 -0.1963 -0.2929 -0.6339
  460SOL    HW1 1199   3.954   4.603   0.221  0.0005  0.0364 -0.5864
  460SOL    HW2 1200   3.932   4.736   0.127 -0.7533  0.0518 -0.3992
  461SOL     OW 1201   0.188   1.847   4.609  0.7596  0.1808  0.4307
  461SOL    HW1 1202   0.125   1.896   4.670 -0.4560 -1.5615  0.6659
  461SOL    HW2 1203   0.232   1.773   4.660  1.2477 -0.0585 -0.3250
  462SOL     OW 1204   0.924   2.601   3.232 -0.4275 -0.1361 -0.1532
  462SOL    HW1 1205   1.006   2.546   3.248 -1.5280 -1.2804  2.0038
  462SOL    HW2 1206   0.867   2.555   3.163  1.0087  1.0883 -2.3020
  463SOL     OW 1207   4.848   4.649   0.216 -0.8062 -0.2296  0.1109
  463SOL    HW1 1208   4.842   4.625   0.312  0.3915 -0.3512  0.1618
  463SOL    HW2 1209   4.839   4.748   0.205  0.7901 -0.0133  0.5331
  464SOL     OW 1210   3.861   1.532   1.451 -0.3367  0.0253 -0.0245
  464SOL    HW1 1211   3.797   1.567   1.519  1.2896  0.3641  1.4218
  464SOL    HW2 1212   3.877   1.435   1.469  0.3209  0.1862  0.2931
  465SOL     OW 1213   4.309   4.079   3.121  1.0387 -0.1070 -0.5892
  465SOL    HW1 1214   4.323   4.016   3.197 -0.5849 -1.0646 -1.0238
  465SOL    HW2 1215   4.341   4.170   3.147 -1.1044  0.0393  1.9714
  466SOL     OW 1216   4.840   4.928   3.077 -0.3308  0.2825 -0.2582
  466SOL    HW1 1217   4.768   4.918   3.145  0.3003 -1.0712  0.2362
  466SOL    HW2 1218   4.826   4.864   3.002  1.6492 -1.8301  1.0485
  467SOL     OW 1219   1.814   0.339   2.865  0.9963  0.9387  0.0191
  467SOL    HW1 1220   1.886   0.319   2.798  2.8239  0.4661  1.9913
  467SOL    HW2 1221   1.804   0.438   2.875 -0.7652  1.0704 -2.3600
  468SOL     OW 1222   4.763   0.454   0.077  0.6480 -0.5167 -0.8774
  468SOL    HW1 1223   4.795   0.522   0.010 -1.1705 -0.8039 -2.0964
  468SOL    HW2 1224   4.835   0.439   0.144  1.1650  2.5468 -0.5779
  469SOL     OW 1225   0.029   1.783   2.987 -0.3749  0.5678 -0.0722
  469SOL    HW1 1226   0.106   1.839   3.017  1.1582 -0.7899 -1.2456
  469SOL    HW2 1227  -0.056   1.836   2.992  0.7034  2.2791  0.7651
  470SOL     OW 1228   2.469   1.720   3.872 -0.7283  0.3727 -0.1536
  470SOL    HW1 1229   2.429   1.700   3.783  1.2392  0.2908 -1.0707
  470SOL    HW2 1230   2.466   1.819   3.888  0.8889  0.6556 -1.3551
  471SOL     OW 1231   3.623   4.075   4.762 -0.8889 -0.0294  0.2371
  471SOL    HW1 1232   3.641   4.000   4.827 -1.8319 -0.8810 -0.4530
  471SOL    HW2 1233   3.673   4.157   4.791 -2.2883  0.0152  2.7845
  472SOL     OW 1234   1.216   2.976   4.255 -0.0345  0.0251 -0.1601
  472SOL    HW1 1235   1.271   3.000   4.175 -1.5824  0.4176 -1.1400
  472SOL    HW2 1236   1.210   3.056   4.316  0.9391 -0.2010  0.2606
  473SOL     OW 1237   2.052   3.826   3.844 -0.1779 -0.0941  0.0454
  473SOL    HW1 1238   2.100   3.754   3.895 -0.9530 -0.6521  0.0170
  473SOL    HW2 1239   2.116   3.871   3.782 -0.3154 -3.2135 -2.6696
  474SOL     OW 1240   0.544   1.243   2.235 -0.9287  0.2062  0.6008
  474SOL    HW1 1241   0.494   1.161   2.264 -2.4764  0.9032 -0.0049
  474SOL    HW2 1242   0.563   1.301   2.315 -0.9721 -0.1221  0.8524
  475SOL     OW 1243   0.421   2.741   1.544 -0.1592 -0.4784  0.5612
  475SOL    HW1 1244   0.455   2.833   1.523 -0.2658 -0.4544  0.4940
  475SOL    HW2 1245   0.498   2.677   1.545 -0.1985 -0.5533 -0.3190
  476SOL     OW 1246   1.864   2.617   0.939 -0.3862  0.2385  0.6980
  476SOL    HW1 1247   1.940   2.566   0.898 -1.9756 -0.5049 -1.4801
  476SOL    HW2 1248   1.779   2.566   0.925 -1.3199  1.0025  3.1672
  477SOL     OW 1249   0.213   1.158   4.093 -0.5847 -1.0372 -0.9493
  477SOL    HW1 1250   0.296   1.107   4.115 -0.5176 -0.1276  1.2073
  477SOL    HW2 1251   0.141   1.134   4.159 -0.7907  0.9970 -0.3449
  478SOL     OW 1252   3.766   3.113   3.474 -0.0948  0.3172 -0.2443
  478SOL    HW1 1253   3.747   3.022   3.511 -1.8752  0.4315 -0.8167
  478SOL    HW2 1254   3.852   3.110   3.422 -0.6448 -1.3197 -1.1403
  479SOL     OW 1255   3.860   0.017   4.533 -0.8172  0.6865  0.7543
  479SOL    HW1 1256   3.846   0.116   4.542 -0.1205  0.7413  1.3518
  479SOL    HW2 1257   3.818  -0.029   4.611 -0.5081  0.5807  0.8612
  480SOL     OW 1258   4.823   4.388   0.613  0.0520 -0.0415 -0.2449
  480SOL    HW1 1259   4.830   4.474   0.562 -0.2946  2.9514  4.2148
  480SOL    HW2 1260   4.915   4.359   0.642 -0.0626  0.7999  1.0447
  481SOL     OW 1261   2.438   5.003   0.400  0.1699 -0.2945 -0.1433
  481SOL    HW1 1262   2.392   5.007   0.311 -3.0728 -0.5875  1.3965
  481SOL    HW2 1263   2.452   5.095   0.435  2.3474 -0.1231 -1.2750
  482SOL     OW 1264   3.969   1.386   4.483 -0.1787 -0.1922 -0.3395
  482SOL    HW1 1265   4.046   1.386   4.547 -1.3195  2.8016  1.2641
  482SOL    HW2 1266   3.982   1.458   4.415 -1.3443  0.1012 -0.2827
  483SOL     OW 1267   4.572   4.172   0.849 -0.3709  0.5420 -0.0225
  483SOL    HW1 1268   4.634   4.152   0.773 -1.2991 -0.1956 -0.6047
  483SOL    HW2 1269   4.523   4.257   0.831  0.1750  0.9167  0.2507
  484SOL     OW 1270   0.092   4.947   0.036 -0.1449 -0.1433 -0.3899
  484SOL    HW1 1271   0.119   4.970  -0.058 -0.0197 -0.4489 -0.4310
  484SOL    HW2 1272   0.020   4.877   0.033 -0.2967  0.0067 -0.2616
  485SOL     OW 1273   5.004   2.824   0.695  0.2351 -0.4399  0.4452
  485SOL    HW1 1274   4.953   2.758   0.640 -0.9035  1.6218 -1.1066
  485SOL    HW2 1275   5.032   2.901   0.638 -0.2164  1.3859  2.5302
  486SOL     OW 1276   0.961   0.115   0.788  0.4997  0.2866  0.4861
  486SOL    HW1 1277   1.044   0.061   0.798  1.7614  1.7378 -1.3764
  486SOL    HW2 1278   0.934   0.118   0.691 -1.4820  0.2285  0.9785
  487SOL     OW 1279   3.134   1.384   2.151  0.4865 -0.1642 -0.2182
  487SOL    HW1 1280   3.097   1.377   2.244 -1.8769  0.4780 -1.0604
  487SOL    HW2 1281   3.209   1.318   2.141 -1.2868 -2.5779  1.1982
  488SOL     OW 1282   3.112   4.977   3.508  0.3631  0.5220 -0.5171
  488SOL    HW1 1283   3.131   5.019   3.419 -0.2421  2.0827  0.0469
  488SOL    HW2 1284   3.162   5.027   3.579 -0.6392  0.5021  0.2189
  489SOL     OW 1285   1.097   2.927   0.053  0.1538 -0.6972  0.3897
  489SOL    HW1 1286   1.018   2.961   0.105  0.1360  0.7385 -0.5356
  489SOL    HW2 1287   1.066   2.894  -0.037  0.5885 -0.2722  0.0828
  490SOL     OW 1288   3.928   4.785   4.823  0.1003 -0.0298 -0.0639
  490SOL    HW1 1289   3.952   4.762   4.729  1.8488  0.2008  0.2866
  490SOL    HW2 1290   3.881   4.873   4.825 -1.0787 -0.6161 -0.8175
  491SOL     OW 1291   4.030   0.941   3.928  0.2901 -0.2677 -0.0774
  491SOL    HW1 1292   4.094   1.017   3.917  0.1855 -0.1735 -0.0354
  491SOL    HW2 1293   3.937   0.974   3.919  0.2791 -0.6274 -1.4428
  492SOL     OW 1294   1.948   4.160   3.866 -0.1284 -0.3976 -0.3506
  492SOL    HW1 1295   1.936   4.136   3.769 -1.2676 -0.1947 -0.2661
  492SOL    HW2 1296   2.039   4.130   3.896  0.7951  0.7391 -1.8444
  493SOL     OW 1297   4.182   4.216   3.424  0.4246 -0.4422  0.6348
  493SOL    HW1 1298   4.147   4.279   3.493  0.7023 -0.7750  1.0906
  493SOL    HW2 1299   4.271   4.181   3.454 -0.1275 -1.7350  0.8191
  494SOL     OW 1300   4.163   2.029   3.671  0.2273  0.3212  0.5010
  494SOL    HW1 1301   4.111   2.111   3.695 -0.6055 -0.5628  1.8626
  494SOL    HW2 1302   4.167   2.019   3.571  0.7268  2.2282  0.3007
  495SOL     OW 1303   2.264   2.916   1.547  0.5157 -0.0519 -0.3180
  495SOL    HW1 1304   2.249   3.014   1.554 -0.5692 -0.3059  2.0186
  495SOL    HW2 1305   2.341   2.890   1.605 -0.6414 -0.8011  0.9583
  496SOL     OW 1306   3.273   0.060   3.706  0.6061 -0.1898 -0.0093
  496SOL    HW1 1307   3.311   0.150   3.727 -2.6617  1.2180  0.4207
  496SOL    HW2 1308   3.242   0.016   3.791 -0.8742 -0.2077 -0.5408
  497SOL     OW 1309   1.119   4.280   1.512 -0.4604  0.0769 -0.2970
  497SOL    HW1 1310   1.089   4.342   1.585 -2.0134  0.3979 -1.1575
  497SOL    HW2 1311   1.142   4.333   1.431  1.1437 -0.2873 -0.1163
  498SOL     OW 1312   0.245   1.264   2.392 -0.2736 -0.1431  0.0874
  498SOL    HW1 1313   0.301   1.187   2.363 -0.3278 -0.0875 -0.1665
  498SOL    HW2 1314   0.282   1.302   2.477  0.4691  0.2977 -0.4156
  499SOL     OW 1315   1.125   1.055   3.252  0.2218 -0.4064  0.2676
  499SOL    HW1 1316   1.080   1.111   3.182  0.0019 -1.4040 -0.4122
  499SOL    HW2 1317   1.079   0.967   3.259  0.7131 -0.6052  1.1498
  500SOL     OW 1318   4.308   2.944   0.231 -0.0462 -0.1775 -0.5057
  500SOL    HW1 1319   4.396   2.897   0.221 -0.3712 -1.0093  0.3545
  500SOL    HW2 1320   4.320   3.041   0.212  0.6092 -0.6073 -2.4740
  501SOL     OW 1321   3.101   4.150   3.076  0.5352  0.3959 -0.3384
  501SOL    HW1 1322   3.111   4.108   3.166  4.7721 -0.6422 -1.0755
  501SOL    HW2 1323   3.165   4.227   3.068 -0.6750  1.2875 -2.0885
  502SOL     OW 1324   3.989   0.325   1.717 -0.1507  0.2952  0.4473
  502SOL    HW1 1325   3.962   0.257   1.648  1.2529  0.3819 -0.2085
  502SOL    HW2 1326   3.952   0.297   1.806 -0.9332 -0.4828 -0.0957
  503SOL     OW 1327   0.627   4.052   0.697  0.0459 -0.1845 -0.2342
  503SOL    HW1 1328   0.538   4.076   0.658  0.0716 -0.6711 -0.5993
  503SOL    HW2 1329   0.625   4.068   0.796 -0.0951  0.8368 -0.3844
  504SOL     OW 1330   3.617   3.979   4.427  0.1045 -0.5915 -0.0007
  504SOL    HW1 1331   3.610   3.977   4.327 -2.5645 -1.6972  0.1261
  504SOL    HW2 1332   3.528   3.957   4.467  1.6841 -2.8792  2.6347
  505SOL     OW 1333   1.871   1.014   2.673  0.1396  0.1944 -0.3376
  505SOL    HW1 1334   1.828   0.931   2.637 -0.0083  0.4136 -0.6765
  505SOL    HW2 1335   1.819   1.047   2.752  0.2945 -0.1267 -0.1000
  506SOL     OW 1336   4.012   1.787   2.968  0.1131 -0.6547 -0.6376
  506SOL    HW1 1337   3.950   1.801   2.892  0.4015 -1.0083 -0.9432
  506SOL    HW2 1338   3.979   1.836   3.049  0.3020  0.5180 -1.2510
  507SOL     OW 1339   2.923   4.476   3.609 -0.0700  0.7097 -0.0372
  507SOL    HW1 1340   2.955   4.571   3.619 -1.1036  0.9458  1.2056
  507SOL    HW2 1341   2.824   4.472   3.624  0.0356 -0.6444  0.4408
  508SOL     OW 1342   1.643   1.860   0.756 -0.0154  0.1392 -0.1485
  508SOL    HW1 1343   1.639   1.761   0.742  1.0449 -0.0035  0.4582
  508SOL    HW2 1344   1.615   1.907   0.672  0.4532 -0.6861 -0.7792
  509SOL     OW 1345   3.904   1.097   0.822 -0.3327  0.1420 -0.0134
  509SOL    HW1 1346   3.998   1.110   0.856  0.9113 -1.4418 -2.5190
  509SOL    HW2 1347   3.844   1.166   0.862  1.6964  0.6810  2.3538
  510SOL     OW 1348   2.201   0.526   1.612 -0.2689 -1.0052  0.4604
  510SOL    HW1 1349   2.127   0.463   1.638  0.2509 -1.6059  0.5085
  510SOL    HW2 1350   2.227   0.580   1.691 -0.5693 -0.8812  0.4767
  511SOL     OW 1351   4.879   0.969   0.215  0.4527  0.5959  0.5850
  511SOL    HW1 1352   4.948   1.040   0.217  1.0940 -0.0255  1.6010
  511SOL    HW2 1353   4.919   0.882   0.246  0.1198 -0.6121 -2.0591
  512SOL     OW 1354   2.030   3.225   1.914 -0.0390 -0.1048 -0.0183
  512SOL    HW1 1355   2.064   3.214   2.007  1.5060  1.7148 -0.3105
  512SOL    HW2 1356   2.009   3.135   1.875  1.2583 -1.0555  1.3754
  513SOL     OW 1357   0.950   2.725   0.245 -0.5120 -0.1736  0.3313
  513SOL    HW1 1358   0.908   2.649   0.195 -0.2882 -0.7575  1.0124
  513SOL    HW2 1359   0.889   2.803   0.245 -1.5874 -0.9890  1.2684
  514SOL     OW 1360   4.764   4.623   4.128  0.5825 -0.1334  0.1143
  514SOL    HW1 1361   4.701   4.608   4.203  1.2997 -0.0575  0.7492
  514SOL    HW2 1362   4.796   4.535   4.093 -0.9433 -0.2267 -1.1711
  515SOL     OW 1363   1.903   0.031   4.676 -0.0324  0.6731  0.4919
  515SOL    HW1 1364   1.988  -0.019   4.660  0.1197  0.5574  1.6377
  515SOL    HW2 1365   1.909   0.120   4.629  0.4088  0.3651 -0.0589
  516SOL     OW 1366   1.423   4.631   0.194  0.2857  0.7928 -0.0532
  516SOL    HW1 1367   1.519   4.661   0.192  0.4276  0.3795  0.3894
  516SOL    HW2 1368   1.368   4.701   0.238  0.3679  1.0696 -0.3835
  517SOL     OW 1369   3.541   2.074   3.111 -0.8631  0.4560 -0.1837
  517SOL    HW1 1370   3.555   2.145   3.181 -0.7706 -0.4057  0.6848
  517SOL    HW2 1371   3.630   2.046   3.074 -0.9360  1.2126 -0.9806
  518SOL     OW 1372   1.317   4.621   1.376  0.1629  0.2736  0.0911
  518SOL    HW1 1373   1.408   4.585   1.357  0.5631  0.9235  0.7467
  518SOL    HW2 1374   1.324   4.706   1.428 -0.8298  0.0123  0.6847
  519SOL     OW 1375   1.766   0.435   3.448  0.0271 -0.0550  0.3795
  519SOL    HW1 1376   1.751   0.473   3.357 -2.9396  0.1991  0.8749
  519SOL    HW2 1377   1.795   0.507   3.511  1.6818 -0.1553 -0.2133
  520SOL     OW 1378   1.310   3.358   2.488  0.1376 -0.5204  0.6285
  520SOL    HW1 1379   1.291   3.305   2.572 -1.5421 -1.3578 -0.2202
  520SOL    HW2 1380   1.224   3.376   2.441  0.8322  1.8503  0.1767
  521SOL     OW 1381   3.382   0.365   3.238  0.2160 -0.1360  0.0751
  521SOL    HW1 1382   3.425   0.302   3.173 -1.0945 -0.2251 -0.7410
  521SOL    HW2 1383   3.297   0.324   3.273  0.5679  0.1951  1.3482
  522SOL     OW 1384   2.155   0.832   5.027 -0.9391 -0.1486 -0.0642
  522SOL    HW1 1385   2.191   0.925   5.029 -0.4239 -0.3552  1.0567
  522SOL    HW2 1386   2.218   0.773   4.976 -1.1158  0.0584 -0.5213
  523SOL     OW 1387   4.270   0.177   0.314 -0.6031 -0.5546  0.1040
  523SOL    HW1 1388   4.232   0.231   0.239  0.1803  0.4123  0.3773
  523SOL    HW2 1389   4.218   0.195   0.398 -0.2621 -0.0938  0.2251
  524SOL     OW 1390   2.299   1.119   2.234  0.1261 -0.4208 -0.2949
  524SOL    HW1 1391   2.252   1.074   2.157 -1.9664  2.4476 -0.8690
  524SOL    HW2 1392   2.353   1.195   2.199 -0.1223  0.3710  1.0047
  525SOL     OW 1393   4.012   4.179   3.743 -0.6733  0.3510 -0.0207
  525SOL    HW1 1394   4.043   4.274   3.736  0.9281 -0.2029 -0.8995
  525SOL    HW2 1395   4.069   4.131   3.810  0.0143 -0.5434 -1.2196
  526SOL     OW 1396   4.660   4.337   0.285 -0.2849 -0.1959 -0.0825
  526SOL    HW1 1397   4.625   4.384   0.366  0.9771  1.0059 -0.1848
  526SOL    HW2 1398   4.630   4.386   0.203 -1.5878 -1.4281 -0.3703
  527SOL     OW 1399   0.455   4.578   0.163  0.0276  0.1836 -0.3576
  527SOL    HW1 1400   0.459   4.626   0.251  0.9669 -0.9969  0.2612
  527SOL    HW2 1401   0.517   4.500   0.164 -1.2444 -0.8916 -1.4522
  528SOL     OW 1402   2.652   3.431   2.872 -0.3605 -0.6967  0.7200
  528SOL    HW1 1403   2.574   3.369   2.860 -0.3364 -0.7075  0.6191
  528SOL    HW2 1404   2.650   3.469   2.964 -1.2885  0.4103  0.2618
  529SOL     OW 1405   1.619   0.946   3.440  0.6727 -0.2252  0.6548
  529SOL    HW1 1406   1.609   0.861   3.491 -1.9389 -1.4827 -1.7082
  529SOL    HW2 1407   1.530   0.978   3.410  1.9222  1.2147 -1.8727
  530SOL     OW 1408   3.113   2.089   3.802 -0.1850  0.2172  0.1171
  530SOL    HW1 1409   3.132   2.030   3.880  0.4112  0.4258  0.1317
  530SOL    HW2 1410   3.187   2.082   3.735 -0.5014  0.3377 -0.2489
  531SOL     OW 1411   1.197   0.025   3.997  0.3347  0.1011 -0.0986
  531SOL    HW1 1412   1.219  -0.037   4.072  0.3935  0.1992 -0.0347
  531SOL    HW2 1413   1.197  -0.026   3.911 -3.4841 -0.8943  0.3163
  532SOL     OW 1414   0.641   1.336   0.710 -0.1087  0.1728  0.1248
  532SOL    HW1 1415   0.668   1.248   0.669 -0.4323 -0.5663  1.4438
  532SOL    HW2 1416   0.591   1.390   0.643  1.4701  0.0422 -1.2246
  533SOL     OW 1417   0.978   0.623   0.239  0.2784  0.6207 -0.7431
  533SOL    HW1 1418   0.925   0.653   0.318  0.5075  2.1171 -1.1135
  533SOL    HW2 1419   1.055   0.567   0.268 -0.7840 -0.5282 -0.0950
  534SOL     OW 1420   2.609   2.854   1.907 -0.1154  0.2674 -0.2496
  534SOL    HW1 1421   2.666   2.780   1.943  0.5028  0.7224 -0.2893
  534SOL    HW2 1422   2.666   2.931   1.881 -0.6890  0.4832 -0.9031
  535SOL     OW 1423   3.617   4.109   0.153  0.3332  0.3255 -0.0808
  535SOL    HW1 1424   3.706   4.154   0.163  0.8128  0.1207 -2.8266
  535SOL    HW2 1425   3.630   4.009   0.153 -0.0233  0.2748  0.3529
  536SOL     OW 1426   3.276   4.618   1.124  0.8090 -0.6032 -0.6195
  536SOL    HW1 1427   3.294   4.629   1.026  0.4046 -0.6121 -0.6964
  536SOL    HW2 1428   3.183   4.648   1.144  0.4534 -1.7660 -0.4503
  537SOL     OW 1429   2.052   1.394   2.371 -0.0772  0.1663 -0.1307
  537SOL    HW1 1430   2.070   1.443   2.286  2.3513 -0.9104 -0.3216
  537SOL    HW2 1431   2.037   1.297   2.351 -0.6729  0.1050  0.5787
  538SOL     OW 1432   4.748   3.626   3.771 -0.4714 -0.2960 -0.4344
  538SOL    HW1 1433   4.778   3.540   3.812  0.2434  0.2694  0.2723
  538SOL    HW2 1434   4.821   3.663   3.713 -0.4775  0.1876 -0.1463
  539SOL     OW 1435   3.590   0.791   0.949 -0.0450  0.1125 -0.0020
  539SOL    HW1 1436   3.549   0.703   0.925  1.3935 -0.2583 -1.2706
  539SOL    HW2 1437   3.632   0.832   0.867  0.9451  1.0712  0.9431
  540SOL     OW 1438   0.198   0.167   0.843  0.3680  0.0402  0.0746
  540SOL    HW1 1439   0.249   0.151   0.759  1.6643  0.1637  0.8144
  540SOL    HW2 1440   0.100   0.167   0.823  0.6724  0.7939 -1.5419
  541SOL     OW 1441   0.686   0.237   3.228 -0.4949 -0.5229 -0.2186
  541SOL    HW1 1442   0.646   0.194   3.309 -0.5509 -2.3300 -1.1398
  541SOL    HW2 1443   0.615   0.286   3.177 -0.6697 -0.2583  0.2764
  542SOL     OW 1444   0.590   1.988   2.860 -0.0588 -0.0931 -0.3790
  542SOL    HW1 1445   0.562   1.977   2.956  0.5709 -0.3229 -0.2131
  542SOL    HW2 1446   0.519   1.951   2.800  0.1126 -1.1628  0.0476
  543SOL     OW 1447   3.738   3.528   3.126 -0.2884 -0.4743  0.2306
  543SOL    HW1 1448   3.741   3.627   3.133 -1.3458 -0.2870 -1.4454
  543SOL    HW2 1449   3.769   3.499   3.035 -0.5623 -1.6348  0.4838
  544SOL     OW 1450   1.210   4.436   3.413  0.1095  0.6458 -0.1115
  544SOL    HW1 1451   1.252   4.527   3.418  0.8937  0.3125 -0.3406
  544SOL    HW2 1452   1.230   4.396   3.323  0.6503 -0.1536  0.3596
  545SOL     OW 1453   2.164   2.938   2.587  0.0744  0.6141 -0.1021
  545SOL    HW1 1454   2.241   2.880   2.559 -0.5964  0.0532 -0.8190
  545SOL    HW2 1455   2.186   3.034   2.568  0.3232  0.3927 -0.9752
  546SOL     OW 1456   1.223   1.553   4.512 -0.9308 -0.0923  0.0884
  546SOL    HW1 1457   1.228   1.473   4.452 -0.8110 -0.7680  0.9811
  546SOL    HW2 1458   1.129   1.566   4.544 -0.7972 -0.3700  0.5981
  547SOL     OW 1459   1.822   1.778   2.446 -0.5755 -0.2262 -0.0142
  547SOL    HW1 1460   1.764   1.811   2.521 -0.0790 -0.9616  0.7050
  547SOL    HW2 1461   1.830   1.679   2.452 -0.0933 -0.2351 -0.7405
  548SOL     OW 1462   2.827   0.054   0.360 -0.6805  0.0398  0.2731
  548SOL    HW1 1463   2.783   0.110   0.430 -0.8460 -0.5581  0.6586
  548SOL    HW2 1464   2.852  -0.035   0.399 -1.2874 -0.5198 -0.5621
  549SOL     OW 1465   1.002   0.244   1.179 -0.0323  0.2815 -0.2376
  549SOL    HW1 1466   0.960   0.155   1.196 -0.0936  0.0887 -1.3488
  549SOL    HW2 1467   0.944   0.296   1.116  1.5714 -0.1474 -2.1606
  550SOL     OW 1468   2.123   3.560   2.822 -0.4604 -0.3374 -0.1533
  550SOL    HW1 1469   2.126   3.467   2.786 -0.9009  0.0271 -1.1703
  550SOL    HW2 1470   2.102   3.624   2.748 -0.1719  0.5746  0.5311
  551SOL     OW 1471   1.922   2.424   2.754 -0.3180  0.3898 -0.2866
  551SOL    HW1 1472   2.000   2.361   2.755 -1.4986 -1.1297 -0.0309
  551SOL    HW2 1473   1.931   2.487   2.678  1.3040  0.4316 -0.0861
  552SOL     OW 1474   0.478   3.753   0.390  0.1562  0.0283  0.2849
  552SOL    HW1 1475   0.571   3.737   0.421  0.2087  0.7075  0.4852
  552SOL    HW2 1476   0.479   3.779   0.293  0.2558  0.8912  0.5110
  553SOL     OW 1477   2.435   3.289   4.958 -0.2291 -0.3151 -0.5855
  553SOL    HW1 1478   2.384   3.208   4.988  0.6302  0.0904  2.2865
  553SOL    HW2 1479   2.533   3.267   4.953  0.2051  0.8091  1.6466
  554SOL     OW 1480   0.661   0.946   3.871 -0.1152 -0.1268 -0.3721
  554SOL    HW1 1481   0.575   0.975   3.912 -0.9455 -0.1336 -2.0187
  554SOL    HW2 1482   0.676   0.997   3.786  0.5977 -1.3851 -1.0336
  555SOL     OW 1483   0.447   1.413   0.889 -0.5575 -0.1208 -0.2799
  555SOL    HW1 1484   0.524   1.379   0.835 -1.7106  0.2592 -2.2601
  555SOL    HW2 1485   0.463   1.508   0.916 -1.1536  0.6581 -2.4727
  556SOL     OW 1486   3.430   1.959   1.413  0.4307  0.2288  0.5548
  556SOL    HW1 1487   3.417   1.876   1.359  0.1342 -0.3357  1.4586
  556SOL    HW2 1488   3.455   2.035   1.353  0.7909 -0.5283 -0.2788
  557SOL     OW 1489   4.989   4.744   4.524 -0.3705  0.1905 -0.4123
  557SOL    HW1 1490   4.993   4.843   4.541 -2.2703  0.2572 -0.1336
  557SOL    HW2 1491   4.978   4.729   4.425 -1.9564  0.3880 -0.3023
  558SOL     OW 1492   2.259   3.215   0.807 -0.2091  0.3180 -0.0783
  558SOL    HW1 1493   2.278   3.305   0.767  1.1404 -1.5444 -4.1178
  558SOL    HW2 1494   2.161   3.198   0.804 -0.2554  0.6997 -1.7111
  559SOL     OW 1495   4.942   3.493   0.988  0.0370 -0.0937 -0.3039
  559SOL    HW1 1496   4.957   3.497   1.087 -1.6419 -0.4000 -0.0218
  559SOL    HW2 1497   4.951   3.585   0.950  0.3161  0.0864  0.1837
  560SOL     OW 1498   2.912   4.552   2.562 -0.1019  0.4798 -0.3098
  560SOL    HW1 1499   2.918   4.594   2.653  2.0740  0.7397 -0.5250
  560SOL    HW2 1500   2.822   4.572   2.523 -1.4610 -0.4438  2.1277
  561SOL     OW 1501   0.955   1.470   1.946 -0.1640  0.0575  0.1018
  561SOL    HW1 1502   1.027   1.504   1.885  0.6081 -1.8742 -0.1616
  561SOL    HW2 1503   0.996   1.442   2.033 -0.0269 -3.3053 -0.8732
  562SOL     OW 1504   2.597   2.954   0.203 -0.6066  0.2691 -0.7200
  562SOL    HW1 1505   2.559   2.863   0.223 -0.3547  0.0153 -1.3547
  562SOL    HW2 1506   2.652   2.949   0.120 -0.1696  0.8964 -0.4766
  563SOL     OW 1507   4.815   4.917   0.808  0.2158  0.0261  0.5071
  563SOL    HW1 1508   4.722   4.891   0.781  0.6862 -1.8355  0.5479
  563SOL    HW2 1509   4.836   4.880   0.898  0.0987  2.7529  1.7439
  564SOL     OW 1510   2.937   3.829   4.335 -0.0356  0.2343 -0.6837
  564SOL    HW1 1511   3.016   3.771   4.311  0.1428 -0.5640  1.5859
  564SOL    HW2 1512   2.884   3.784   4.406 -0.5346  2.3782  0.3685
  565SOL     OW 1513   1.694   3.565   3.047  0.4104  0.5422  0.0059
  565SOL    HW1 1514   1.739   3.545   2.960 -0.1513 -0.0778 -0.1544
  565SOL    HW2 1515   1.657   3.480   3.085 -0.1519  0.9540  0.3917
  566SOL     OW 1516   2.014   1.454   4.664  0.5539  0.1341 -0.1574
  566SOL    HW1 1517   1.981   1.546   4.644  0.9953  0.0850 -1.1491
  566SOL    HW2 1518   2.007   1.437   4.763 -3.5280 -0.3344 -0.3823
  567SOL     OW 1519   4.029   0.250   2.373  0.3301 -0.5551  0.4801
  567SOL    HW1 1520   4.067   0.253   2.466  0.0885 -0.6211  0.5835
  567SOL    HW2 1521   4.091   0.198   2.314  1.4745  1.1487  0.1191
  568SOL     OW 1522   4.879   0.371   4.199 -0.1104 -0.1434 -0.0352
  568SOL    HW1 1523   4.813   0.381   4.273  0.1170  0.1866  0.1256
  568SOL    HW2 1524   4.885   0.275   4.172  0.7553 -0.4771  1.2536
  569SOL     OW 1525   3.294   0.810   3.237 -0.3150  0.2003 -0.1127
  569SOL    HW1 1526   3.331   0.890   3.283 -0.5746  0.4909 -0.3989
  569SOL    HW2 1527   3.342   0.728   3.267  0.4889  0.5570 -0.4129
  570SOL     OW 1528   4.241   0.698   3.438  0.6477  0.0711  0.3639
  570SOL    HW1 1529   4.215   0.613   3.484  2.1440 -1.2861 -1.1331
  570SOL    HW2 1530   4.337   0.717   3.455  0.2550  1.6697  0.9172
  571SOL     OW 1531   1.153   2.439   1.832 -0.1070 -0.2425 -0.2368
  571SOL    HW1 1532   1.104   2.435   1.746 -0.9557 -0.8323  0.2630
  571SOL    HW2 1533   1.104   2.497   1.897 -1.4838 -2.7122  1.0575
  572SOL     OW 1534   4.383   3.787   0.146  0.2439  0.1451 -0.1982
  572SOL    HW1 1535   4.338   3.727   0.212 -0.8265 -0.4471 -1.4089
  572SOL    HW2 1536   4.477   3.756   0.130  0.2296 -0.2168  0.4019
  573SOL     OW 1537   4.661   4.050   1.496  0.3961  0.4775  0.0933
  573SOL    HW1 1538   4.655   4.020   1.401 -0.3147 -1.3533  0.6775
  573SOL    HW2 1539   4.713   3.983   1.549  1.8480  2.0826  0.7934
  574SOL     OW 1540   2.173   4.860   4.896 -0.1078 -0.9268 -0.2068
  574SOL    HW1 1541   2.204   4.835   4.988  0.1856 -0.4590 -0.1800
  574SOL    HW2 1542   2.185   4.958   4.882 -0.5634 -0.9228 -0.5900
  575SOL     OW 1543   0.599   0.619   5.032 -0.5102  0.0512 -0.8887
  575SOL    HW1 1544   0.613   0.668   5.118  0.9915  0.8252 -1.5297
  575SOL    HW2 1545   0.501   0.611   5.013 -0.8620 -0.0717  0.8394
  576SOL     OW 1546   1.584   4.938   3.389  0.2706 -0.4141  0.2312
  576SOL    HW1 1547   1.511   4.933   3.322  0.6993 -3.8094 -0.1707
  576SOL    HW2 1548   1.625   5.030   3.387 -2.2007  0.7641 -1.3524
  577SOL     OW 1549   2.322   1.556   2.133  0.5354  0.0713 -0.9642
  577SOL    HW1 1550   2.393   1.600   2.189 -0.8624  2.7469 -1.1175
  577SOL    HW2 1551   2.325   1.593   2.041 -1.3548  0.6676 -0.8319
  578SOL     OW 1552   3.915   4.206   1.782 -0.3161  0.2460  0.4938
  578SOL    HW1 1553   3.928   4.186   1.879 -0.3474 -0.7068  0.3028
  578SOL    HW2 1554   3.987   4.267   1.751  1.2160 -1.5030  0.4895
  579SOL     OW 1555   4.488   2.389   2.684 -0.1367  0.0876 -0.3376
  579SOL    HW1 1556   4.495   2.435   2.595  0.1152 -0.0170 -0.3739
  579SOL    HW2 1557   4.428   2.309   2.676  1.0923 -0.8277 -0.8047
  580SOL     OW 1558   1.008   1.211   3.043  0.0468 -0.2022 -0.1944
  580SOL    HW1 1559   1.093   1.253   3.012  0.7159 -0.9887  0.5126
  580SOL    HW2 1560   0.939   1.282   3.060  0.3097  0.3890 -1.4689
  581SOL     OW 1561   4.945   0.719   3.500 -0.1419 -0.2717 -0.4012
  581SOL    HW1 1562   4.925   0.680   3.590 -0.5899  0.1359 -0.3225
  581SOL    HW2 1563   5.030   0.771   3.505  0.9855 -2.0133 -0.7392
  582SOL     OW 1564   2.714   2.942   4.056  0.2738 -0.1296  0.2328
  582SOL    HW1 1565   2.680   2.966   3.965 -0.3431 -0.9212  0.2469
  582SOL    HW2 1566   2.814   2.950   4.057  0.5037 -2.0627 -1.1417
  583SOL     OW 1567   4.449   1.105   0.624 -0.2219  0.0724 -0.8697
  583SOL    HW1 1568   4.467   1.054   0.540  2.3444  1.9298 -1.5918
  583SOL    HW2 1569   4.516   1.079   0.694  1.8011  2.9407 -1.5748
  584SOL     OW 1570   3.162   4.877   0.447 -0.0190  0.4927 -0.2111
  584SOL    HW1 1571   3.124   4.818   0.519 -1.4940 -2.1802 -2.9777
  584SOL    HW2 1572   3.112   4.964   0.446 -1.9394 -0.5436  0.2084
  585SOL     OW 1573   1.052   4.802   1.920  0.4836 -0.3003  0.1814
  585SOL    HW1 1574   1.079   4.764   2.008 -0.6133 -2.0595 -0.1812
  585SOL    HW2 1575   0.955   4.828   1.922  0.6179  0.2731 -0.3065
  586SOL     OW 1576   2.755   1.206   3.041  0.2041  0.7971 -0.2873
  586SOL    HW1 1577   2.706   1.180   2.957  0.7300  0.6462 -0.5498
  586SOL    HW2 1578   2.836   1.260   3.017  1.4589 -0.9037 -0.0167
  587SOL     OW 1579   0.839   4.835   2.564  0.5656  0.4361  0.2073
  587SOL    HW1 1580   0.838   4.756   2.625 -1.1575 -0.8815 -1.4176
  587SOL    HW2 1581   0.890   4.813   2.481  0.8106  1.3572  0.0983
  588SOL     OW 1582   0.264   0.685   3.818  0.0693 -0.4864  0.8040
  588SOL    HW1 1583   0.185   0.718   3.870 -0.1384  0.5023 -0.0903
  588SOL    HW2 1584   0.301   0.760   3.764  0.5144 -1.3899 -0.1742
  589SOL     OW 1585   1.389   1.113   4.376 -0.6193 -0.0928  0.4215
  589SOL    HW1 1586   1.453   1.136   4.449  0.5031  1.9406 -1.1057
  589SOL    HW2 1587   1.381   1.014   4.368  3.4724 -0.5511 -0.1926
  590SOL     OW 1588   2.284   4.739   2.765  0.4340 -0.0036 -0.2340
  590SOL    HW1 1589   2.282   4.644   2.734 -0.9686 -0.3940  0.9520
  590SOL    HW2 1590   2.377   4.775   2.755  0.7011 -1.0573 -1.9492
  591SOL     OW 1591   0.995   0.721   3.644  0.3824 -0.7379  0.3856
  591SOL    HW1 1592   1.037   0.660   3.577  0.6756 -1.2870  1.0567
  591SOL    HW2 1593   0.943   0.792   3.596  2.0830 -0.0119 -0.4678
  592SOL     OW 1594   3.890   2.638   1.168 -0.2681 -0.4427  0.1716
  592SOL    HW1 1595   3.833   2.560   1.141 -0.0563 -0.8164  0.7717
  592SOL    HW2 1596   3.838   2.696   1.231 -1.7843  1.9141 -2.9535
  593SOL     OW 1597   3.770   4.266   4.874 -1.2502 -0.0465  0.3400
  593SOL    HW1 1598   3.810   4.308   4.793 -0.5610 -2.5501 -0.6993
  593SOL    HW2 1599   3.841   4.255   4.944 -1.1223 -0.6458  0.1170
  594SOL     OW 1600   1.426   3.464   1.266 -0.0682 -0.3019  0.4434
  594SOL    HW1 1601   1.445   3.394   1.197 -1.7786  0.1098 -0.4852
  594SOL    HW2 1602   1.475   3.441   1.350  0.0336 -2.1806 -0.0831
  595SOL     OW 1603   1.697   3.293   2.743 -0.2127 -0.6678  0.7073
  595SOL    HW1 1604   1.741   3.289   2.653 -1.6009  0.4891 -0.0676
  595SOL    HW2 1605   1.746   3.358   2.802 -0.0359 -0.4730  0.3479
  596SOL     OW 1606   0.850   3.881   2.729 -0.4348 -0.3025  0.2138
  596SOL    HW1 1607   0.907   3.861   2.809  0.0781 -1.7998 -0.4801
  596SOL    HW2 1608   0.892   3.954   2.676  0.3342 -0.7004  0.2461
  597SOL     OW 1609   0.169   4.767   3.152 -0.3560  0.6366  0.0597
  597SOL    HW1 1610   0.227   4.724   3.220 -1.3108  2.0455  1.8499
  597SOL    HW2 1611   0.210   4.756   3.061  0.4973 -2.0474  0.6867
  598SOL     OW 1612   4.755   3.953   4.782  0.2620  0.0477 -0.2271
  598SOL    HW1 1613   4.730   4.047   4.804  0.9628  0.6789 -1.9144
  598SOL    HW2 1614   4.673   3.895   4.781 -0.0275  0.3268  2.0262
  599SOL     OW 1615   0.717   0.228   4.482 -0.5594 -0.5015 -0.3387
  599SOL    HW1 1616   0.707   0.316   4.528  0.7493  0.0582 -1.0819
  599SOL    HW2 1617   0.700   0.239   4.385 -0.8668 -1.1817 -0.3680
  600SOL     OW 1618   5.014   0.482   3.052  0.5805  0.0676  0.2270
  600SOL    HW1 1619   4.957   0.520   3.126 -3.9848  0.0182 -2.8538
  600SOL    HW2 1620   5.060   0.556   3.004 -2.7436  1.2046 -1.5009
  601SOL     OW 1621   1.133   1.275   4.640  0.1181  0.1238  0.0450
  601SOL    HW1 1622   1.050   1.220   4.634 -0.1658  0.6344 -0.8496
  601SOL    HW2 1623   1.109   1.370   4.660  0.4387  0.3844 -0.7607
  602SOL     OW 1624   1.686   2.554   4.119 -0.3748 -0.3288  0.3404
  602SOL    HW1 1625   1.588   2.543   4.135 -0.6083 -0.5449 -1.1461
  602SOL    HW2 1626   1.720   2.632   4.172 -1.4352  0.0256  0.5150
  603SOL     OW 1627   1.209   5.041   2.515  0.0206  0.0359  0.4634
  603SOL    HW1 1628   1.225   4.997   2.603  0.4998 -0.4396  0.1451
  603SOL    HW2 1629   1.135   4.995   2.466  0.0040  0.0691  0.4568
  604SOL     OW 1630   4.682   3.365   0.929 -0.3708  0.0037  0.7868
  604SOL    HW1 1631   4.759   3.415   0.969 -0.3438  0.9272 -0.3600
  604SOL    HW2 1632   4.706   3.268   0.918  1.1555  0.4980 -0.7315
  605SOL     OW 1633   4.494   0.297   0.454  0.9027 -0.2533  0.1851
  605SOL    HW1 1634   4.460   0.357   0.527  1.8845 -2.5917  2.7103
  605SOL    HW2 1635   4.422   0.232   0.429  1.1442 -0.6059  0.3946
  606SOL     OW 1636   4.183   4.780   1.511  0.1363  0.2419  0.4128
  606SOL    HW1 1637   4.180   4.811   1.606 -1.1102  1.0706  0.1257
  606SOL    HW2 1638   4.096   4.800   1.467  0.8359  0.2054 -1.0224
  607SOL     OW 1639   3.468   2.949   1.980  0.3978 -0.2844  0.2688
  607SOL    HW1 1640   3.538   2.914   2.041 -0.1536  0.2188  1.2209
  607SOL    HW2 1641   3.404   2.876   1.955  0.3424 -0.3827  0.7038
  608SOL     OW 1642   4.471   1.593   3.858  0.3007  0.2215  0.0157
  608SOL    HW1 1643   4.521   1.605   3.944  0.4701 -0.0441 -0.0426
  608SOL    HW2 1644   4.523   1.636   3.784  1.4396 -1.6766 -0.3692
  609SOL     OW 1645   0.750   4.065   4.917  0.1426 -0.0358  0.8101
  609SOL    HW1 1646   0.700   4.113   4.845 -1.6995 -0.6663  1.6125
  609SOL    HW2 1647   0.770   3.971   4.887  2.9184  0.8361 -0.3868
  610SOL     OW 1648   2.323   1.977   1.945 -0.9129  0.2484 -0.1181
  610SOL    HW1 1649   2.314   1.943   1.851 -0.8285 -0.4912  0.1358
  610SOL    HW2 1650   2.235   1.975   1.991 -0.5344 -1.7438  0.5976
  611SOL     OW 1651   2.810   1.559   1.514 -0.1255  0.3778  1.0032
  611SOL    HW1 1652   2.847   1.645   1.549 -0.8798  0.8917  0.5638
  611SOL    HW2 1653   2.728   1.577   1.459  0.1041 -0.5606  0.3198
  612SOL     OW 1654   3.781   1.440   3.021  0.5072 -0.2295 -0.3812
  612SOL    HW1 1655   3.789   1.340   3.026 -1.6815 -0.5398 -1.9035
  612SOL    HW2 1656   3.814   1.471   2.932 -1.3684  0.0477 -1.0161
  613SOL     OW 1657   2.868   0.073   3.782  0.6275  0.4604 -0.7201
  613SOL    HW1 1658   2.881  -0.000   3.848 -2.9382  0.6203  0.3529
  613SOL    HW2 1659   2.849   0.034   3.692 -0.0518  0.0817 -0.4164
  614SOL     OW 1660   1.682   4.351   2.536 -0.2344 -0.5350 -0.2234
  614SOL    HW1 1661   1.615   4.295   2.584 -0.0759  0.5075  1.2855
  614SOL    HW2 1662   1.771   4.305   2.538 -0.8936 -2.0194 -2.4164
  615SOL     OW 1663   1.858   4.427   1.667 -0.8521  0.1225 -0.2182
  615SOL    HW1 1664   1.861   4.330   1.645 -1.1983  0.1552 -0.4195
  615SOL    HW2 1665   1.769   4.465   1.640 -0.5047  0.6222 -0.6916
  616SOL     OW 1666   1.579   0.298   0.130 -0.9204 -0.2247  0.0684
  616SOL    HW1 1667   1.549   0.234   0.201 -0.6259  1.1182  1.4435
  616SOL    HW2 1668   1.678   0.299   0.125 -0.9311 -0.0704 -0.1363
  617SOL     OW 1669   0.356   4.955   0.449  0.1539  0.1544  0.3982
  617SOL    HW1 1670   0.355   4.986   0.544  0.0977  1.4720 -0.0186
  617SOL    HW2 1671   0.281   4.998   0.399  0.4192 -0.2299 -0.3457
  618SOL     OW 1672   2.663   2.214   4.561  0.8202  0.1770  0.6687
  618SOL    HW1 1673   2.752   2.249   4.590  0.1274  1.1864  1.7186
  618SOL    HW2 1674   2.669   2.175   4.470  2.0383  1.5000  0.1579
  619SOL     OW 1675   1.615   2.501   0.939  0.3649 -0.1836 -0.8679
  619SOL    HW1 1676   1.525   2.492   0.898  0.8173  1.7394 -2.4253
  619SOL    HW2 1677   1.607   2.534   1.033 -0.5499 -0.0702 -0.9830
  620SOL     OW 1678   2.501   4.754   0.502  0.1739 -0.0450  0.1887
  620SOL    HW1 1679   2.477   4.819   0.431  1.1284 -1.1565 -1.2045
  620SOL    HW2 1680   2.484   4.661   0.470  2.2332 -0.6579  0.7240
  621SOL     OW 1681   0.246   0.914   2.163 -0.1051  0.7020  0.0833
  621SOL    HW1 1682   0.265   0.830   2.112  0.8629  0.4977  0.7500
  621SOL    HW2 1683   0.162   0.956   2.128 -0.4855 -0.4208 -0.4056
  622SOL     OW 1684   2.993   3.034   1.664  0.0734  0.4882  0.1370
  622SOL    HW1 1685   2.961   3.082   1.582 -2.1002  1.5782  1.5312
  622SOL    HW2 1686   3.082   3.071   1.691 -0.5071  2.1554 -0.1251
  623SOL     OW 1687   0.305   1.957   3.380  0.8322 -0.1074  0.1528
  623SOL    HW1 1688   0.327   2.020   3.455 -0.4242 -0.9311  1.2626
  623SOL    HW2 1689   0.209   1.968   3.355  0.3938 -2.0454  0.8447
  624SOL     OW 1690   2.730   0.090   3.020 -0.5873  0.0704 -0.5233
  624SOL    HW1 1691   2.662   0.096   2.947 -0.2271 -1.4264 -1.0037
  624SOL    HW2 1692   2.691   0.042   3.098 -0.6082  0.6877 -0.1465
  625SOL     OW 1693   1.711   4.711   2.702  0.4674 -0.2243 -0.0524
  625SOL    HW1 1694   1.728   4.677   2.610 -0.0241  0.8069 -0.5495
  625SOL    HW2 1695   1.743   4.806   2.709  0.5173 -0.2961  0.8479
  626SOL     OW 1696   4.852   3.271   2.509  0.2708  1.1882 -0.5144
  626SOL    HW1 1697   4.947   3.285   2.537  0.1227  0.3842  0.4834
  626SOL    HW2 1698   4.791   3.307   2.579 -0.1756  1.8754 -1.2424
  627SOL     OW 1699   0.083   4.730   3.482  0.3863  0.1950  0.0759
  627SOL    HW1 1700   0.017   4.709   3.410  0.9526  2.9891 -1.3986
  627SOL    HW2 1701   0.176   4.715   3.447  0.6858  2.1031 -0.0784
  628SOL     OW 1702   3.456   0.328   0.882 -0.1675  0.6393  0.0616
  628SOL    HW1 1703   3.426   0.280   0.799 -2.0049  0.6026  0.7021
  628SOL    HW2 1704   3.448   0.266   0.960  0.3553  1.0586  0.4508
  629SOL     OW 1705   1.135   0.281   1.419  0.0092 -0.6566 -0.7790
  629SOL    HW1 1706   1.076   0.268   1.340  0.0556  0.2708 -0.9686
  629SOL    HW2 1707   1.229   0.258   1.395  0.1814  0.5313 -1.2687
  630SOL     OW 1708   1.500   4.526   3.613  0.3147  0.1446 -0.8501
  630SOL    HW1 1709   1.440   4.526   3.693  0.4700  2.9100 -0.6619
  630SOL    HW2 1710   1.482   4.444   3.558 -2.3977  0.0239  0.0950
  631SOL     OW 1711   0.741   1.181   4.171 -0.0376 -0.0179 -0.5932
  631SOL    HW1 1712   0.799   1.252   4.131  1.1441 -0.2916  0.5561
  631SOL    HW2 1713   0.652   1.220   4.194  0.6580  1.1575  0.1955
  632SOL     OW 1714   0.931   4.227   2.371 -0.3846  0.1160  0.3113
  632SOL    HW1 1715   0.832   4.225   2.356 -0.2099 -2.7955 -1.2838
  632SOL    HW2 1716   0.977   4.262   2.289 -0.0428 -0.3419  0.3031
  633SOL     OW 1717   2.072   2.144   1.588  0.0937 -0.0801 -0.8260
  633SOL    HW1 1718   2.008   2.192   1.528 -0.9016 -2.3700 -1.6944
  633SOL    HW2 1719   2.021   2.107   1.667  0.5182 -1.0661 -1.0056
  634SOL     OW 1720   0.722   0.447   2.579 -0.5024  0.4653  0.6047
  634SOL    HW1 1721   0.793   0.411   2.638 -0.3226  0.1837  0.2251
  634SOL    HW2 1722   0.681   0.528   2.620 -0.3165  0.3253  1.0645
  635SOL     OW 1723   1.387   1.335   0.467  0.1388 -0.0776 -0.1456
  635SOL    HW1 1724   1.313   1.369   0.525  0.6610 -0.7703  0.9632
  635SOL    HW2 1725   1.364   1.244   0.433  0.4173 -0.2255  0.0660
  636SOL     OW 1726   0.388   2.308   2.477  0.4543 -0.5955 -0.4698
  636SOL    HW1 1727   0.314   2.359   2.521  0.6822 -1.6588  1.2531
  636SOL    HW2 1728   0.410   2.227   2.532  1.0086 -1.8332 -2.4046
  637SOL     OW 1729   4.369   1.200   1.260 -0.2770  0.4256 -0.0303
  637SOL    HW1 1730   4.348   1.104   1.238  0.6257  0.2041  0.0286
  637SOL    HW2 1731   4.298   1.236   1.321 -1.1285  0.0898 -0.7979
  638SOL     OW 1732   3.169   1.130   1.719 -0.6372 -0.2618 -0.3469
  638SOL    HW1 1733   3.095   1.191   1.746 -0.2382  0.6905 -1.3626
  638SOL    HW2 1734   3.131   1.051   1.669 -0.9845  0.1593 -0.7546
  639SOL     OW 1735   4.143   2.961   4.168  0.3082  0.2464  0.1418
  639SOL    HW1 1736   4.182   2.876   4.202  0.6238  1.0916  2.0265
  639SOL    HW2 1737   4.043   2.952   4.162  0.2198  0.1506  1.5938
  640SOL     OW 1738   2.647   4.097   0.788  0.2584 -0.0538 -0.1760
  640SOL    HW1 1739   2.589   4.100   0.707 -0.8163 -0.3393  0.5652
  640SOL    HW2 1740   2.671   4.190   0.815  0.3082  0.0561 -0.5904
  641SOL     OW 1741   0.704   1.897   3.276  0.1026 -0.2239  0.2479
  641SOL    HW1 1742   0.642   1.819   3.284  0.6105 -0.8873 -1.6561
  641SOL    HW2 1743   0.791   1.876   3.321  0.3308 -0.8862 -0.4745
  642SOL     OW 1744   1.146   1.811   2.290  0.5622 -0.1029 -0.3298
  642SOL    HW1 1745   1.238   1.839   2.264 -0.4531  2.4874 -1.3978
  642SOL    HW2 1746   1.083   1.887   2.277 -1.9833 -2.1640 -0.8178
  643SOL     OW 1747   3.001   3.015   0.099  0.2816  0.3858 -0.3393
  643SOL    HW1 1748   2.942   2.946   0.057  1.1291  1.0746 -2.8528
  643SOL    HW2 1749   3.093   2.978   0.110  0.4646  0.7563 -0.6249
  644SOL     OW 1750   1.760   1.635   1.901 -0.2458  0.4615  0.0647
  644SOL    HW1 1751   1.682   1.683   1.861 -0.8050  0.3854  1.0548
  644SOL    HW2 1752   1.798   1.689   1.976  1.2653  0.9463 -1.0119
  645SOL     OW 1753   3.590   1.977   1.618  0.3189 -0.1713 -0.3873
  645SOL    HW1 1754   3.554   1.916   1.688 -1.5104 -0.3484 -1.4424
  645SOL    HW2 1755   3.528   1.980   1.540  0.4264  2.8910 -0.4705
  646SOL     OW 1756   2.125   4.637   3.796  0.3451  0.4086 -0.4319
  646SOL    HW1 1757   2.065   4.711   3.765  1.2758  0.8311 -1.2884
  646SOL    HW2 1758   2.175   4.666   3.877  0.0394  0.3845 -0.2352
  647SOL     OW 1759   1.286   4.541   2.231 -0.3773  0.0856 -0.6181
  647SOL    HW1 1760   1.271   4.523   2.133 -0.8070 -1.2321 -0.3305
  647SOL    HW2 1761   1.381   4.519   2.254  0.1945  1.9208 -1.0357
  648SOL     OW 1762   2.656   4.438   3.748 -0.1594  0.0055 -0.0715
  648SOL    HW1 1763   2.593   4.506   3.783 -1.6385 -1.0006 -0.6617
  648SOL    HW2 1764   2.685   4.377   3.822 -2.3835 -1.4252 -0.2853
  649SOL     OW 1765   3.935   4.458   2.975 -0.3951  0.3469 -0.4948
  649SOL    HW1 1766   3.981   4.498   3.054  0.4693 -0.4904 -0.5595
  649SOL    HW2 1767   3.848   4.417   3.003  0.5395 -1.1646  0.3004
  650SOL     OW 1768   4.087   1.190   2.323  0.4031  0.2739 -0.3293
  650SOL    HW1 1769   4.181   1.162   2.303  0.7674  0.6414  0.8427
  650SOL    HW2 1770   4.068   1.278   2.279  0.5583  0.1299 -0.6867
  651SOL     OW 1771   0.638   4.531   3.395  0.0695 -0.2846  0.1250
  651SOL    HW1 1772   0.730   4.498   3.373  0.5001 -0.3483  1.8527
  651SOL    HW2 1773   0.576   4.453   3.402  0.0978 -0.3265 -0.0720
  652SOL     OW 1774   4.106   4.319   3.177 -0.1759 -0.1186 -0.0308
  652SOL    HW1 1775   4.072   4.270   3.096  0.5185  0.0114 -0.4100
  652SOL    HW2 1776   4.118   4.254   3.252 -1.6594 -0.0993  0.2614
  653SOL     OW 1777   0.352   2.637   3.749  0.1110  0.3315  0.1851
  653SOL    HW1 1778   0.357   2.641   3.849 -2.8509  2.2390  0.3821
  653SOL    HW2 1779   0.257   2.626   3.721  0.9617 -1.2177 -2.4929
  654SOL     OW 1780   1.380   0.777   2.817  0.3256 -0.8755 -0.1504
  654SOL    HW1 1781   1.287   0.804   2.790  1.0063  1.2582 -0.5357
  654SOL    HW2 1782   1.375   0.721   2.900 -1.3083 -0.8722 -0.2097
  655SOL     OW 1783   0.998   1.512   4.725 -0.1201 -0.6796 -0.1150
  655SOL    HW1 1784   0.925   1.475   4.668 -0.0247 -0.6044 -0.2870
  655SOL    HW2 1785   0.980   1.609   4.744  0.9935 -0.0709 -1.9148
  656SOL     OW 1786   2.828   0.887   2.603  0.2353 -0.6831 -0.1142
  656SOL    HW1 1787   2.894   0.813   2.587  1.1657 -0.2077  1.3262
  656SOL    HW2 1788   2.753   0.852   2.660  1.0350 -0.3798  1.1666
  657SOL     OW 1789   4.749   5.009   3.432  0.2529 -0.3325 -0.6470
  657SOL    HW1 1790   4.799   5.076   3.377  0.8694 -0.1860  0.0752
  657SOL    HW2 1791   4.651   5.029   3.427  0.3015 -0.2608 -1.5965
  658SOL     OW 1792   4.011   0.591   1.752  0.0255  0.4116 -0.3804
  658SOL    HW1 1793   4.000   0.492   1.746 -1.5137  0.5960 -0.8231
  658SOL    HW2 1794   4.108   0.612   1.767  0.2489 -1.1873  0.7155
  659SOL     OW 1795   2.886   0.567   3.571  0.5434  0.0544  0.0296
  659SOL    HW1 1796   2.949   0.566   3.493 -1.2164  0.4476 -1.4600
  659SOL    HW2 1797   2.794   0.542   3.540 -0.0061 -0.8944  2.2085
  660SOL     OW 1798   3.854   1.506   4.905 -0.5121  0.3229 -0.3724
  660SOL    HW1 1799   3.868   1.409   4.885 -1.0514  0.1547  0.0266
  660SOL    HW2 1800   3.887   1.562   4.829  0.1736 -0.1550 -0.4283
  661SOL     OW 1801   0.812   2.094   0.598 -0.3180  0.3484  0.1685
  661SOL    HW1 1802   0.764   2.079   0.512 -0.8881  0.8326  0.3914
  661SOL    HW2 1803   0.841   2.190   0.604 -0.6027  0.4072  0.6735
  662SOL     OW 1804   2.213   3.428   3.810  0.6162 -0.0121  0.0228
  662SOL    HW1 1805   2.168   3.450   3.724 -0.6768  0.8700  0.8840
  662SOL    HW2 1806   2.233   3.330   3.813  0.6824 -0.0608 -1.2537
  663SOL     OW 1807   3.304   2.308   0.287 -0.6162  0.1853  0.1894
  663SOL    HW1 1808   3.280   2.281   0.380  0.6003  0.1593  0.5134
  663SOL    HW2 1809   3.226   2.292   0.227 -1.9830  1.7102  1.4608
  664SOL     OW 1810   2.798   1.044   1.579 -0.6396  0.4723 -0.4411
  664SOL    HW1 1811   2.857   1.052   1.499  0.7323 -0.3113  0.4529
  664SOL    HW2 1812   2.725   0.979   1.560  1.4590 -2.1599 -0.1235
  665SOL     OW 1813   2.907   1.878   0.832 -0.0837  0.5939  0.4170
  665SOL    HW1 1814   2.945   1.971   0.837  1.5007 -0.0317  0.4929
  665SOL    HW2 1815   2.864   1.865   0.742  0.7936  0.9925 -0.0715
  666SOL     OW 1816   3.960   0.853   2.105  0.0593 -0.1786 -0.6801
  666SOL    HW1 1817   4.051   0.860   2.145  0.1997  0.5714 -1.0882
  666SOL    HW2 1818   3.944   0.760   2.073  1.1381 -0.0736 -1.6124
  667SOL     OW 1819   4.959   1.461   3.200  0.3908  0.1864 -0.1724
  667SOL    HW1 1820   4.864   1.482   3.222  0.4530  1.1506 -0.7994
  667SOL    HW2 1821   4.976   1.476   3.103  0.6522 -2.0634 -0.5364
  668SOL     OW 1822   2.801   3.313   3.284 -0.0964 -0.3962  0.1503
  668SOL    HW1 1823   2.716   3.352   3.250 -0.5657 -0.7502  0.9034
  668SOL    HW2 1824   2.783   3.225   3.327  0.9594 -1.5682 -1.6667
  669SOL     OW 1825   2.950   1.279   2.356  0.0857 -0.0062  0.2619
  669SOL    HW1 1826   2.981   1.190   2.389  0.2660  0.8835  2.7089
  669SOL    HW2 1827   2.864   1.268   2.305 -1.1202 -1.3935  2.4158
  670SOL     OW 1828   3.742   3.904   2.079 -0.2930 -0.6756 -0.3981
  670SOL    HW1 1829   3.712   3.994   2.049  0.4849  0.4020  1.8659
  670SOL    HW2 1830   3.706   3.885   2.170  1.4173 -1.6515  0.1217
  671SOL     OW 1831   2.925   5.007   2.035 -0.3298  0.1301  0.4166
  671SOL    HW1 1832   2.932   5.066   2.115 -1.6182  0.9660 -0.0476
  671SOL    HW2 1833   2.844   4.948   2.044  0.2898 -0.7523  0.3453
  672SOL     OW 1834   2.300   0.341   4.423  0.4392  0.2331  0.2429
  672SOL    HW1 1835   2.316   0.373   4.516  1.6334 -0.7632  0.4020
  672SOL    HW2 1836   2.295   0.420   4.361  0.1895  0.8724  1.0538
  673SOL     OW 1837   2.358   0.994   3.819  0.4573  0.0004  0.2322
  673SOL    HW1 1838   2.377   1.085   3.782  1.9075 -0.6327 -0.6695
  673SOL    HW2 1839   2.279   0.954   3.773  1.5312 -0.3043 -1.4266
  674SOL     OW 1840   2.390   4.304   0.974 -0.2618 -0.1728  0.0592
  674SOL    HW1 1841   2.410   4.250   1.056 -0.1563  0.4522  0.4593
  674SOL    HW2 1842   2.476   4.330   0.930 -0.3382 -1.5956 -1.0036
  675SOL     OW 1843   4.708   2.384   1.801  0.2029 -0.7466 -0.0175
  675SOL    HW1 1844   4.777   2.455   1.813  0.7668 -1.2235 -0.4101
  675SOL    HW2 1845   4.752   2.294   1.798 -0.4247 -1.0486 -0.3726
  676SOL     OW 1846   1.815   4.338   2.920 -0.1127 -0.0131  0.3813
  676SOL    HW1 1847   1.765   4.314   3.003  0.0585 -1.4177  0.1038
  676SOL    HW2 1848   1.819   4.258   2.859  0.3734  0.7858 -0.6640
  677SOL     OW 1849   4.438   1.274   1.006  0.5160  0.1455  0.3731
  677SOL    HW1 1850   4.411   1.264   1.101 -0.1217  1.7245  0.3839
  677SOL    HW2 1851   4.385   1.348   0.963  0.9393 -0.3856 -1.1457
  678SOL     OW 1852   3.352   1.705   2.657 -0.4306 -0.5870 -0.7129
  678SOL    HW1 1853   3.400   1.639   2.598  1.0104 -0.2271  0.0169
  678SOL    HW2 1854   3.370   1.798   2.624 -0.6421 -0.4510 -0.4464
  679SOL     OW 1855   0.609   0.320   1.024  0.1396 -0.4973  0.1383
  679SOL    HW1 1856   0.681   0.332   0.955 -2.0748 -1.5264 -2.5842
  679SOL    HW2 1857   0.567   0.408   1.044  1.6407  0.0101  1.2589
  680SOL     OW 1858   3.704   3.119   4.598  0.3431 -0.6346  0.2654
  680SOL    HW1 1859   3.788   3.144   4.549 -0.1064 -1.2663 -0.8530
  680SOL    HW2 1860   3.628   3.175   4.565  0.3839  0.3094  1.6470
  681SOL     OW 1861   0.514   2.549   0.467  0.3170  0.2839  0.2716
  681SOL    HW1 1862   0.542   2.605   0.389 -1.5271  1.0761  0.1359
  681SOL    HW2 1863   0.476   2.463   0.434  0.1844  0.3165  0.3414
  682SOL     OW 1864   4.660   4.841   2.869  0.0036  0.6018  0.2211
  682SOL    HW1 1865   4.683   4.853   2.773  0.9800  1.1297  0.5074
  682SOL    HW2 1866   4.587   4.905   2.895  0.9605  1.7255  0.2454
  683SOL     OW 1867   4.531   4.168   4.271 -0.3544  0.4317 -0.4855
  683SOL    HW1 1868   4.625   4.138   4.251 -0.7194 -1.3548  0.2799
  683SOL    HW2 1869   4.520   4.263   4.243  1.4537  0.4418 -1.3133
  684SOL     OW 1870   0.327   0.605   0.067 -0.2366  0.8059  0.3548
  684SOL    HW1 1871   0.341   0.617   0.166 -2.6975  0.8410  0.7619
  684SOL    HW2 1872   0.271   0.524   0.051  0.2882  0.7057 -1.0446
  685SOL     OW 1873   4.377   1.619   3.103  0.2176 -0.4551 -0.5246
  685SOL    HW1 1874   4.426   1.539   3.139 -0.1457 -0.1048  0.7817
  685SOL    HW2 1875   4.281   1.595   3.086 -1.2102  0.7849  4.3607
  686SOL     OW 1876   1.355   4.981   3.230 -0.1903  0.0893 -0.1397
  686SOL    HW1 1877   1.276   4.925   3.207 -0.9292  0.6155  1.0479
  686SOL    HW2 1878   1.341   5.074   3.197  0.9502 -0.3320 -1.9353
  687SOL     OW 1879   0.987   3.588   1.482  0.2561 -0.5400 -0.0453
  687SOL    HW1 1880   0.898   3.587   1.436  0.0379  0.7798  0.3184
  687SOL    HW2 1881   0.994   3.668   1.541  2.7887  1.0861 -2.3079
  688SOL     OW 1882   0.731   1.125   3.531 -0.0523 -0.0982 -0.5785
  688SOL    HW1 1883   0.707   1.197   3.596 -0.0505 -1.6237  1.1893
  688SOL    HW2 1884   0.667   1.127   3.454 -0.5225  1.2810 -0.1830
  689SOL     OW 1885   2.162   2.621   0.141 -0.7272 -0.6561 -0.8573
  689SOL    HW1 1886   2.220   2.665   0.072  0.3207 -2.3404 -1.1105
  689SOL    HW2 1887   2.159   2.678   0.223 -0.1356  0.2986 -1.4800
  690SOL     OW 1888   0.091   2.518   3.800 -0.2177  0.0966  0.1248
  690SOL    HW1 1889   0.108   2.432   3.751 -0.5653 -0.5396  1.1080
  690SOL    HW2 1890   0.014   2.566   3.757  0.9063  0.6726 -1.3587
  691SOL     OW 1891   4.636   3.112   0.097  0.3830  0.4415  0.3156
  691SOL    HW1 1892   4.602   3.172   0.169 -0.4570  1.1191 -0.6093
  691SOL    HW2 1893   4.723   3.148   0.062  0.0515  0.9458 -0.0044
  692SOL     OW 1894   0.945   4.454   2.544  0.0327 -0.0583 -0.3358
  692SOL    HW1 1895   0.920   4.363   2.510  0.3039 -1.1470  2.1584
  692SOL    HW2 1896   1.044   4.459   2.553  0.1163  0.9546 -1.5516
  693SOL     OW 1897   1.707   0.964   1.591  0.3491  0.0246  0.2188
  693SOL    HW1 1898   1.718   0.973   1.492  0.5925 -2.7247 -0.0861
  693SOL    HW2 1899   1.637   0.895   1.611  1.2296 -0.4260  1.9393
  694SOL     OW 1900   4.844   0.655   3.256  0.3505 -0.3558 -0.3640
  694SOL    HW1 1901   4.884   0.694   3.339 -1.3436 -2.0891  1.3897
  694SOL    HW2 1902   4.836   0.726   3.186  0.0655  1.6720  1.6098
  695SOL     OW 1903   3.310   3.740   0.409  0.7784  0.0902 -0.0410
  695SOL    HW1 1904   3.382   3.759   0.475  0.5771  1.0028 -0.0750
  695SOL    HW2 1905   3.248   3.671   0.446  1.6777 -0.7252 -0.0268
  696SOL     OW 1906   5.012   4.762   3.724  0.0085  0.2951 -0.1444
  696SOL    HW1 1907   5.063   4.736   3.642 -2.1167 -0.2680 -1.3892
  696SOL    HW2 1908   5.056   4.724   3.805  0.3943 -2.0219 -1.3492
  697SOL     OW 1909   4.687   1.791   3.233 -0.1681  0.4721  0.4123
  697SOL    HW1 1910   4.740   1.804   3.316  2.3397  0.7234 -1.1148
  697SOL    HW2 1911   4.683   1.693   3.211 -1.9507  0.2787  1.4634
  698SOL     OW 1912   1.440   1.481   4.061 -0.2617 -0.2219  0.2643
  698SOL    HW1 1913   1.444   1.417   3.984 -0.7913  0.4565 -0.3444
  698SOL    HW2 1914   1.347   1.518   4.069  0.1634  0.9231  0.1978
  699SOL     OW 1915   1.203   1.919   0.227  0.5790  0.1408 -0.2650
  699SOL    HW1 1916   1.145   1.855   0.278 -0.3390  0.1958 -1.2186
  699SOL    HW2 1917   1.280   1.869   0.187  0.0635 -0.3036 -0.7067
  700SOL     OW 1918   1.438   3.476   4.360 -0.6488  0.2136  0.3552
  700SOL    HW1 1919   1.462   3.420   4.439  0.7692  0.1805 -0.0601
  700SOL    HW2 1920   1.510   3.544   4.345 -1.5677  1.1030 -0.1013
  701SOL     OW 1921   3.921   2.988   3.827 -0.5165  0.8046  0.0371
  701SOL    HW1 1922   3.872   2.919   3.880 -3.4653 -0.5678 -3.9755
  701SOL    HW2 1923   4.000   2.946   3.784 -0.2917  0.9168  0.3342
  702SOL     OW 1924   4.834   0.867   3.055  0.0075  0.2288  0.1913
  702SOL    HW1 1925   4.819   0.959   3.091 -1.5995  0.5493 -1.1797
  702SOL    HW2 1926   4.893   0.872   2.974 -0.2386  0.0776  0.0010
  703SOL     OW 1927   0.990   4.976   4.282  0.2367 -0.2587 -0.6068
  703SOL    HW1 1928   0.993   5.015   4.374 -1.2253 -3.4455  0.9377
  703SOL    HW2 1929   1.082   4.956   4.250  0.6900 -0.5935  0.8751
  704SOL     OW 1930   2.573   1.640   0.526 -0.0765  0.2089  0.2017
  704SOL    HW1 1931   2.579   1.622   0.624 -1.4006 -0.6469  0.1598
  704SOL    HW2 1932   2.497   1.588   0.488  0.1152  0.9093 -1.1974
  705SOL     OW 1933   3.066   2.264   0.129 -0.3111  0.2027  0.2088
  705SOL    HW1 1934   2.994   2.194   0.141 -0.0487 -0.4109 -1.4875
  705SOL    HW2 1935   3.035   2.331   0.062  1.4675 -1.2931 -2.2836
  706SOL     OW 1936   4.640   3.816   0.344 -0.1575  0.0123  0.2149
  706SOL    HW1 1937   4.667   3.781   0.254 -0.1852  0.6206 -0.0388
  706SOL    HW2 1938   4.624   3.915   0.337  2.0725  0.5290  1.3634
  707SOL     OW 1939   1.964   2.452   4.148  0.3467  0.1184  0.0667
  707SOL    HW1 1940   1.867   2.433   4.133  0.7719 -1.3188 -1.0620
  707SOL    HW2 1941   1.987   2.543   4.112 -0.0768 -0.5554 -2.0082
  708SOL     OW 1942   0.429   3.371   4.658  0.0714  0.7268  0.0850
  708SOL    HW1 1943   0.342   3.411   4.686  0.8197  2.8737 -0.4539
  708SOL    HW2 1944   0.499   3.393   4.726  0.0258 -2.0014  1.1395
  709SOL     OW 1945   4.922   3.170   3.093 -0.0157 -0.3748  0.0015
  709SOL    HW1 1946   4.921   3.108   3.014 -2.3106  1.9991 -2.0116
  709SOL    HW2 1947   4.833   3.167   3.139  0.7509 -0.5025  1.5444
  710SOL     OW 1948   2.391   3.605   0.451 -0.4228  0.1024 -0.4577
  710SOL    HW1 1949   2.451   3.526   0.438 -0.6273 -0.2811  0.7692
  710SOL    HW2 1950   2.433   3.669   0.516 -1.6215 -0.5180  0.9828
  711SOL     OW 1951   0.677   2.122   4.525  0.6247  0.2725 -0.4871
  711SOL    HW1 1952   0.611   2.048   4.539  0.0261  0.6032 -1.4303
  711SOL    HW2 1953   0.767   2.093   4.558 -0.3248  0.5223  2.6668
  712SOL     OW 1954   2.668   4.369   0.866  0.1960 -0.2973  0.1489
  712SOL    HW1 1955   2.684   4.448   0.925  0.5839  0.9980 -1.6317
  712SOL    HW2 1956   2.705   4.387   0.775 -3.5774 -0.7210 -1.6248
  713SOL     OW 1957   2.494   1.746   1.014  0.5013 -0.2795 -0.1397
  713SOL    HW1 1958   2.572   1.766   1.073  0.5733  0.8107 -0.5820
  713SOL    HW2 1959   2.410   1.778   1.058  0.4756 -0.1242 -0.2986
  714SOL     OW 1960   1.505   2.424   2.042 -0.3946 -0.7529  0.2554
  714SOL    HW1 1961   1.555   2.489   2.098 -0.6239 -1.3830  1.2005
  714SOL    HW2 1962   1.481   2.468   1.955  1.2660 -0.2561  0.0145
  715SOL     OW 1963   1.129   1.082   2.614  0.2745 -0.6111  0.2102
  715SOL    HW1 1964   1.058   1.096   2.683  1.0268 -0.9837  1.0784
  715SOL    HW2 1965   1.097   1.118   2.526 -0.4143  0.5344  0.8960
  716SOL     OW 1966   0.569   3.330   1.084  0.5250  0.2086  0.5177
  716SOL    HW1 1967   0.624   3.247   1.075  0.5278  0.2945 -0.2953
  716SOL    HW2 1968   0.616   3.407   1.041 -0.0809  0.3464  0.0848
  717SOL     OW 1969   3.000   2.219   1.997  0.1826  0.0070 -0.1051
  717SOL    HW1 1970   2.970   2.124   2.003 -0.8603  0.2453 -1.0881
  717SOL    HW2 1971   2.936   2.277   2.047  0.2497  0.2947 -0.3496
  718SOL     OW 1972   2.328   1.246   4.324 -0.9207  0.2448 -0.0035
  718SOL    HW1 1973   2.337   1.184   4.245  0.2814  1.3173 -0.7379
  718SOL    HW2 1974   2.338   1.340   4.294 -1.4592  0.7434  1.3079
  719SOL     OW 1975   1.362   2.423   0.790 -0.4596 -0.2979  0.8761
  719SOL    HW1 1976   1.337   2.512   0.827 -1.7752 -0.5511  0.6321
  719SOL    HW2 1977   1.282   2.363   0.789 -0.1040 -0.8157 -0.8797
  720SOL     OW 1978   4.026   1.367   1.847  0.3039  0.4738  0.0985
  720SOL    HW1 1979   3.957   1.335   1.913  0.8369 -1.0434 -0.0354
  720SOL    HW2 1980   4.016   1.315   1.762 -0.1512  2.1725 -0.9290
  721SOL     OW 1981   4.200   1.622   3.817 -0.3175  0.5617  0.1983
  721SOL    HW1 1982   4.183   1.617   3.719  0.6513  0.2997  0.0377
  721SOL    HW2 1983   4.298   1.609   3.836 -0.4514  0.8433  1.1773
  722SOL     OW 1984   0.905   2.339   0.617  0.8939 -0.3553 -0.1466
  722SOL    HW1 1985   0.964   2.354   0.538  0.1687  0.2487 -0.5824
  722SOL    HW2 1986   0.928   2.405   0.689  2.2169 -1.5227  0.5648
  723SOL     OW 1987   1.484   0.427   3.590  0.0524  0.0406 -0.3472
  723SOL    HW1 1988   1.486   0.519   3.551  0.3947  0.5669  0.8504
  723SOL    HW2 1989   1.562   0.374   3.555  0.7425  0.7222  0.1140
  724SOL     OW 1990   1.456   0.952   1.128 -0.2170  0.2482  0.5527
  724SOL    HW1 1991   1.474   0.855   1.115  0.3503  0.2554  1.2526
  724SOL    HW2 1992   1.406   0.966   1.213  0.6525  0.6632  1.0025
  725SOL     OW 1993   0.400   4.797   4.792  0.0079 -0.5467 -0.4483
  725SOL    HW1 1994   0.341   4.877   4.779  0.3982 -0.3269 -0.8858
  725SOL    HW2 1995   0.344   4.718   4.815 -0.2250  0.4624  3.0860
  726SOL     OW 1996   3.596   2.270   3.290  0.0423 -0.0829  0.1006
  726SOL    HW1 1997   3.651   2.275   3.373  3.9850  1.8010 -2.3292
  726SOL    HW2 1998   3.553   2.359   3.273  0.0591 -0.1650 -0.3847
  727SOL     OW 1999   3.682   4.332   0.445  0.0265 -0.3727  0.2517
  727SOL    HW1 2000   3.710   4.412   0.391 -0.9855 -0.1714 -0.0148
  727SOL    HW2 2001   3.596   4.296   0.407  0.2155 -1.2925  0.6744
  728SOL     OW 2002   1.845   0.507   0.249 -0.1160 -0.6162 -0.2150
  728SOL    HW1 2003   1.915   0.574   0.223 -0.7319  0.5858  1.0854
  728SOL    HW2 2004   1.853   0.426   0.191  0.5270  0.6532 -1.9762
  729SOL     OW 2005   2.605   2.510   5.015  0.5891 -0.2236  0.2971
  729SOL    HW1 2006   2.604   2.561   4.929  2.4909 -0.6916 -0.0526
  729SOL    HW2 2007   2.535   2.439   5.012  0.6654 -0.2734 -0.8993
  730SOL     OW 2008   1.809   4.495   4.422 -0.2920 -0.0571 -0.4036
  730SOL    HW1 2009   1.826   4.402   4.389  1.0670  0.4554 -1.2327
  730SOL    HW2 2010   1.892   4.550   4.410 -1.0456  1.2403  0.1707
  731SOL     OW 2011   4.747   3.349   4.424 -0.1318 -0.0350 -0.5247
  731SOL    HW1 2012   4.826   3.402   4.454 -0.0900 -0.3756 -0.0209
  731SOL    HW2 2013   4.770   3.252   4.422 -0.6921 -0.1899  0.1620
  732SOL     OW 2014   3.161   4.445   4.707  0.2408  0.4083 -0.3910
  732SOL    HW1 2015   3.190   4.473   4.798 -0.1765  0.7521 -0.3613
  732SOL    HW2 2016   3.129   4.525   4.656 -2.1213 -0.1298  0.1147
  733SOL     OW 2017   2.541   3.404   0.413  0.1458  0.1615  0.7277
  733SOL    HW1 2018   2.597   3.410   0.331 -0.8298  3.7067  0.1555
  733SOL    HW2 2019   2.594   3.363   0.487  2.0198 -0.4068 -0.8627
  734SOL     OW 2020   1.989   1.867   4.152 -0.0654  0.7396 -0.0326
  734SOL    HW1 2021   1.928   1.824   4.085 -0.2821  3.8593 -2.0399
  734SOL    HW2 2022   2.061   1.917   4.104  2.5433 -0.5672  2.2418
  735SOL     OW 2023   1.784   3.819   2.002  0.2724 -0.0617 -0.1259
  735SOL    HW1 2024   1.813   3.726   2.024  1.1577 -0.5539 -2.9984
  735SOL    HW2 2025   1.865   3.878   1.995 -0.1919  0.6663  0.5118
  736SOL     OW 2026   0.050   0.592   0.706  0.2774  0.5162 -0.6971
  736SOL    HW1 2027   0.134   0.558   0.748 -0.8812 -0.9527  0.5534
  736SOL    HW2 2028   0.007   0.660   0.767  0.0411  0.4918 -0.8341
  737SOL     OW 2029   3.300   2.674   1.564 -0.0325 -0.3207 -0.2216
  737SOL    HW1 2030   3.215   2.711   1.525 -0.5988 -0.7924  0.5434
  737SOL    HW2 2031   3.336   2.602   1.504 -0.1978 -0.1574 -0.5191
  738SOL     OW 2032   4.716   0.574   2.389 -0.1114 -0.3008  0.1509
  738SOL    HW1 2033   4.694   0.550   2.483  1.9556 -2.2764  0.2052
  738SOL    HW2 2034   4.683   0.503   2.327  2.1593 -1.1821 -0.1467
  739SOL     OW 2035   2.741   3.066   0.425 -0.7521 -0.4449  0.6425
  739SOL    HW1 2036   2.809   3.119   0.372 -0.9764 -1.4177 -0.6730
  739SOL    HW2 2037   2.675   3.025   0.362 -2.3474  0.1331  1.8719
  740SOL     OW 2038   3.801   1.025   3.675  0.1338  0.9192  0.7374
  740SOL    HW1 2039   3.726   1.090   3.664  0.5312  1.8369  2.9461
  740SOL    HW2 2040   3.813   1.004   3.772  0.8567 -1.4993  0.2109
  741SOL     OW 2041   0.337   3.696   1.517 -0.1664 -0.5963  0.0779
  741SOL    HW1 2042   0.279   3.742   1.583  0.7983  2.5371 -1.0328
  741SOL    HW2 2043   0.288   3.685   1.431 -0.0155 -0.5305 -0.0180
  742SOL     OW 2044   3.332   1.517   4.297  0.2672 -0.4090  0.0651
  742SOL    HW1 2045   3.261   1.453   4.268  0.7549 -0.5261 -0.9340
  742SOL    HW2 2046   3.311   1.552   4.388 -0.8542 -0.7457 -0.0531
  743SOL     OW 2047   2.319   4.876   0.667 -0.0793 -0.2106  0.1332
  743SOL    HW1 2048   2.372   4.852   0.586 -2.0208  0.9483 -1.5778
  743SOL    HW2 2049   2.353   4.962   0.705  0.0857 -0.1456 -0.1605
  744SOL     OW 2050   2.568   2.716   0.735 -0.0977  0.2047 -0.2090
  744SOL    HW1 2051   2.604   2.668   0.655  0.3847  1.4890 -0.7922
  744SOL    HW2 2052   2.624   2.797   0.753  0.1168 -0.3327  1.7577
  745SOL     OW 2053   2.957   3.198   0.776  0.0094 -0.4106 -0.0386
  745SOL    HW1 2054   2.982   3.140   0.699 -0.2864 -0.3462 -0.1831
  745SOL    HW2 2055   2.908   3.144   0.845 -1.1219 -0.1300 -0.6073
  746SOL     OW 2056   3.833   4.335   3.393 -0.7051  0.3409 -0.0918
  746SOL    HW1 2057   3.874   4.421   3.364 -1.2228  0.2824 -1.0409
  746SOL    HW2 2058   3.735   4.347   3.404 -0.4604  0.5283  2.3501
  747SOL     OW 2059   0.813   1.762   0.195 -0.3109 -0.3301 -0.1195
  747SOL    HW1 2060   0.872   1.753   0.275  0.3840 -0.5132 -0.6326
  747SOL    HW2 2061   0.736   1.699   0.202  0.4947 -1.3651 -0.2320
  748SOL     OW 2062   2.819   2.151   0.019  0.0097  0.3330  0.0263
  748SOL    HW1 2063   2.823   2.249  -0.003 -0.1680  0.7670  1.7479
  748SOL    HW2 2064   2.733   2.113  -0.013 -0.8293  1.2420  1.1223
  749SOL     OW 2065   1.348   4.973   0.392  0.2640 -0.3809 -0.2982
  749SOL    HW1 2066   1.301   4.931   0.315  0.1701  0.5203 -0.7386
  749SOL    HW2 2067   1.284   5.031   0.443  1.0304  1.5454 -1.3980
  750SOL     OW 2068   4.388   0.862   2.726  0.2633  0.5719 -0.2335
  750SOL    HW1 2069   4.291   0.853   2.751 -0.0540  0.8121 -1.3421
  750SOL    HW2 2070   4.428   0.938   2.776 -0.4178  1.1756 -0.5957
  751SOL     OW 2071   3.244   2.518   2.771 -0.1424  0.3371 -0.4743
  751SOL    HW1 2072   3.276   2.429   2.803  1.2988  0.7423 -0.7095
  751SOL    HW2 2073   3.208   2.509   2.678  1.0733  0.1769 -0.9506
  752SOL     OW 2074   0.434   4.685   0.420  0.2059 -0.1345 -0.0682
  752SOL    HW1 2075   0.419   4.647   0.511 -0.3649 -0.9183 -0.4713
  752SOL    HW2 2076   0.401   4.779   0.417  0.7834  0.1038  0.6955
  753SOL     OW 2077   0.627   1.339   3.136 -0.0879  0.4511 -0.2898
  753SOL    HW1 2078   0.568   1.322   3.057 -0.5412  2.3052 -0.3919
  753SOL    HW2 2079   0.717   1.367   3.104 -0.1425  0.7866 -0.1536
  754SOL     OW 2080   0.972   3.206   0.491 -0.3315  0.2275 -0.0841
  754SOL    HW1 2081   0.933   3.222   0.401 -0.8795 -2.8566 -0.5282
  754SOL    HW2 2082   1.072   3.204   0.484 -0.3512 -2.5895 -1.3347
  755SOL     OW 2083   2.479   3.356   1.051  0.2106  0.6555  0.2260
  755SOL    HW1 2084   2.423   3.275   1.061  3.0415 -1.5387 -0.3655
  755SOL    HW2 2085   2.563   3.346   1.105  1.4423  2.3823 -1.2225
  756SOL     OW 2086   0.535   3.282   1.350  0.3960 -0.6961  0.2636
  756SOL    HW1 2087   0.437   3.304   1.355  0.5013 -0.3885  1.1738
  756SOL    HW2 2088   0.567   3.292   1.256 -0.1314  0.6246  0.2078
  757SOL     OW 2089   4.578   4.296   1.595 -0.5075  0.0909  0.7552
  757SOL    HW1 2090   4.592   4.199   1.575  0.3671  0.2293  0.6637
  757SOL    HW2 2091   4.562   4.346   1.510 -1.8923 -0.1018  0.8760
  758SOL     OW 2092   4.479   4.346   4.984  0.1990  0.3758 -0.2478
  758SOL    HW1 2093   4.533   4.413   5.034 -0.0373  0.5640 -0.2372
  758SOL    HW2 2094   4.382   4.370   4.991  0.2419  1.1131 -1.8002
  759SOL     OW 2095   0.932   2.759   1.113 -0.4790 -0.3776 -0.0682
  759SOL    HW1 2096   0.997   2.812   1.168 -0.5650 -0.1211 -0.2104
  759SOL    HW2 2097   0.946   2.662   1.129  1.2352 -0.4222 -1.5838
  760SOL     OW 2098   1.658   1.668   0.459 -0.2319 -0.0618  0.2287
  760SOL    HW1 2099   1.747   1.635   0.490 -0.1138 -0.2382 -0.2800
  760SOL    HW2 2100   1.657   1.768   0.460  0.5942  0.0014 -1.3944
  761SOL     OW 2101   4.142   3.320   1.504 -0.3390 -0.3187  1.2251
  761SOL    HW1 2102   4.077   3.363   1.441  0.3627 -0.9837  0.0125
  761SOL    HW2 2103   4.229   3.369   1.500 -0.3235 -0.3053  1.7509
  762SOL     OW 2104   1.524   0.346   0.526 -0.0065 -0.1272 -0.0863
  762SOL    HW1 2105   1.603   0.324   0.583 -0.6113 -0.6537  0.5518
  762SOL    HW2 2106   1.440   0.312   0.569 -0.3715 -1.6032 -1.8291
  763SOL     OW 2107   2.580   3.404   4.033  0.2317 -0.0860  0.1666
  763SOL    HW1 2108   2.643   3.433   4.105  0.9041 -1.3099  0.1026
  763SOL    HW2 2109   2.504   3.469   4.026 -0.9813 -0.9353  3.4303
  764SOL     OW 2110   1.821   3.757   0.582  0.7375  0.1628 -0.0754
  764SOL    HW1 2111   1.850   3.752   0.678 -2.0407  2.8890  1.0684
  764SOL    HW2 2112   1.770   3.673   0.558  1.3673 -0.4959  0.8272
  765SOL     OW 2113   4.155   2.529   3.261  0.9286  0.4122 -0.2996
  765SOL    HW1 2114   4.187   2.611   3.307 -0.0085  0.3224  0.5265
  765SOL    HW2 2115   4.181   2.448   3.314  1.1994  0.2108 -0.7307
  766SOL     OW 2116   0.255   0.016   4.790  0.2590  0.4249  0.0874
  766SOL    HW1 2117   0.326   0.087   4.787 -0.0710  0.8172  1.1240
  766SOL    HW2 2118   0.173   0.048   4.743 -0.9701  2.0281  3.0052
  767SOL     OW 2119   3.137   3.824   3.117  0.7770 -0.0068 -0.8289
  767SOL    HW1 2120   3.117   3.892   3.189  0.2502 -0.8558 -0.1539
  767SOL    HW2 2121   3.234   3.829   3.093  0.6835  1.2245 -1.0542
  768SOL     OW 2122   0.351   2.922   4.213  0.4824  0.2293 -0.3679
  768SOL    HW1 2123   0.331   2.989   4.141 -1.4536  0.8029  0.6263
  768SOL    HW2 2124   0.447   2.897   4.209  0.9831  2.1091 -1.6004
  769SOL     OW 2125   1.055   3.691   0.653 -0.6047 -0.5024 -0.5504
  769SOL    HW1 2126   0.979   3.754   0.669  0.8739  0.7811  2.1677
  769SOL    HW2 2127   1.107   3.722   0.573 -1.6313 -0.0769 -1.0651
  770SOL     OW 2128   3.897   4.289   4.126 -0.1325 -0.7025  0.0244
  770SOL    HW1 2129   3.942   4.212   4.173  0.7368  1.1978  2.5055
  770SOL    HW2 2130   3.806   4.302   4.165 -0.8585 -1.3046 -1.3983
  771SOL     OW 2131   2.199   3.933   2.790  0.1437  0.7459  0.0443
  771SOL    HW1 2132   2.259   3.907   2.866  2.6250 -1.3673 -2.3870
  771SOL    HW2 2133   2.104   3.916   2.815  0.6460  2.0941  3.3137
  772SOL     OW 2134   4.648   3.728   0.790 -0.0755  0.1960 -0.5514
  772SOL    HW1 2135   4.699   3.782   0.857  0.9378 -1.1413 -0.1820
  772SOL    HW2 2136   4.713   3.680   0.731 -0.9543  0.9558 -2.1955
  773SOL     OW 2137   0.980   1.292   2.479 -0.0603 -0.0503 -0.1250
  773SOL    HW1 2138   0.973   1.351   2.559 -0.7176  0.1717 -0.3381
  773SOL    HW2 2139   0.894   1.293   2.429  0.3142 -0.2461 -0.7969
  774SOL     OW 2140   2.052   0.829   1.931 -0.1792  0.5531  0.0834
  774SOL    HW1 2141   1.980   0.815   1.863  0.2083 -0.0459 -0.2069
  774SOL    HW2 2142   2.059   0.749   1.990  1.8095 -0.4210 -1.3720
  775SOL     OW 2143   4.309   4.342   1.684 -0.1173  0.4138 -0.1686
  775SOL    HW1 2144   4.303   4.305   1.777 -1.5405  1.1555  0.0591
  775SOL    HW2 2145   4.394   4.309   1.641 -0.1476 -1.1402  0.8556
  776SOL     OW 2146   1.489   4.020   3.750  0.4766  0.1860 -0.2582
  776SOL    HW1 2147   1.413   4.074   3.714  0.5950  0.3691 -0.2400
  776SOL    HW2 2148   1.556   4.082   3.792  1.3343  0.1649 -1.5501
  777SOL     OW 2149   3.307   0.895   0.491 -0.4984 -0.4473 -0.1818
  777SOL    HW1 2150   3.320   0.992   0.473  0.5770 -0.8807 -2.0520
  777SOL    HW2 2151   3.214   0.869   0.467 -0.6637  0.0322 -0.0733
  778SOL     OW 2152   4.499   4.134   2.044  0.0117 -0.2297 -0.7190
  778SOL    HW1 2153   4.595   4.143   2.019  0.2141  0.1179  0.1385
  778SOL    HW2 2154   4.492   4.106   2.140 -0.7463  1.0441 -0.3824
  779SOL     OW 2155   0.525   0.326   3.970  0.0117  0.0133 -0.5734
  779SOL    HW1 2156   0.577   0.381   3.906  0.5839 -0.5584 -0.6142
  779SOL    HW2 2157   0.529   0.230   3.943 -1.8626  0.0437 -1.1176
  780SOL     OW 2158   1.136   2.251   5.009  0.4513  0.7361  0.4421
  780SOL    HW1 2159   1.096   2.179   5.066 -0.9680  0.8126 -0.4285
  780SOL    HW2 2160   1.193   2.210   4.938 -2.6379  0.1313 -1.9202
  781SOL     OW 2161   0.008   0.404   2.119  0.3850  0.0567  0.3659
  781SOL    HW1 2162   0.038   0.362   2.204  0.4516 -1.6342 -0.4662
  781SOL    HW2 2163  -0.040   0.337   2.063  1.1543  0.8688 -1.3433
  782SOL     OW 2164   3.747   1.948   3.016  0.0442 -0.2540  0.2115
  782SOL    HW1 2165   3.781   1.926   2.925  1.0068  1.7801  0.0337
  782SOL    HW2 2166   3.729   1.863   3.066  1.8178 -1.4125 -1.0123
  783SOL     OW 2167   2.728   2.517   0.216 -0.4749 -0.2065 -0.0523
  783SOL    HW1 2168   2.802   2.579   0.244 -0.9078 -0.0839  0.8941
  783SOL    HW2 2169   2.688   2.550   0.131  0.7745 -0.4712 -0.7671
  784SOL     OW 2170   4.395   4.599   2.869 -0.0951 -0.5621 -0.3509
  784SOL    HW1 2171   4.415   4.576   2.773 -2.1519 -0.7257 -0.7833
  784SOL    HW2 2172   4.298   4.585   2.887 -0.4639  2.5842  0.8476
  785SOL     OW 2173   4.593   4.616   2.168  0.4232  0.9173 -0.1767
  785SOL    HW1 2174   4.594   4.665   2.255  1.5619 -0.1210  0.4278
  785SOL    HW2 2175   4.681   4.624   2.123  0.4738 -0.1340 -0.3007
  786SOL     OW 2176   2.944   2.776   0.757 -0.5733 -0.5897 -0.4119
  786SOL    HW1 2177   2.875   2.847   0.768  0.3969  0.4583 -0.8484
  786SOL    HW2 2178   2.971   2.772   0.661  2.0172  1.0489  0.1532
  787SOL     OW 2179   1.347   2.797   0.379  0.5422  0.4669  0.4457
  787SOL    HW1 2180   1.368   2.888   0.346  2.0570 -0.1336 -0.3499
  787SOL    HW2 2181   1.317   2.739   0.303  1.8178 -0.3034  0.5005
  788SOL     OW 2182   3.969   0.351   1.042  0.3911 -0.5973  0.6280
  788SOL    HW1 2183   3.933   0.417   0.976  0.9303 -2.0469 -1.2031
  788SOL    HW2 2184   4.069   0.344   1.032  0.4123 -1.2890  1.1828
  789SOL     OW 2185   0.689   0.975   2.803 -0.0404 -0.1878 -0.3817
  789SOL    HW1 2186   0.602   0.985   2.755 -0.6772 -0.0635  0.7741
  789SOL    HW2 2187   0.674   0.928   2.890  0.5508  2.4180  1.2150
  790SOL     OW 2188   2.106   2.789   1.971 -0.1902  0.1489 -0.1386
  790SOL    HW1 2189   2.093   2.705   2.023 -1.4114 -0.1688 -0.9171
  790SOL    HW2 2190   2.195   2.829   1.993 -0.7059  0.0863  2.2510
  791SOL     OW 2191   4.046   0.576   0.333 -0.1070  0.3161  0.6715
  791SOL    HW1 2192   3.952   0.545   0.350 -0.5739  1.1555 -0.2235
  791SOL    HW2 2193   4.043   0.664   0.285  1.0806 -1.1414 -2.3156
  792SOL     OW 2194   1.165   2.238   0.766 -0.1460 -0.0132 -0.0948
  792SOL    HW1 2195   1.077   2.249   0.720  0.4236  1.3415 -0.9620
  792SOL    HW2 2196   1.196   2.144   0.759 -0.2623  0.0690 -2.2248
  793SOL     OW 2197   2.297   1.743   4.453  0.3120  0.8451 -0.0557
  793SOL    HW1 2198   2.206   1.779   4.473  0.4535  0.3975  1.5073
  793SOL    HW2 2199   2.291   1.644   4.440  0.8849  0.3552  2.7218
  794SOL     OW 2200   0.967   2.970   2.749 -0.3619 -0.3820 -0.6201
  794SOL    HW1 2201   0.906   3.041   2.711  2.8662  3.5921  0.8783
  794SOL    HW2 2202   0.926   2.932   2.832 -1.2375  1.5692 -0.0938
  795SOL     OW 2203   1.746   4.216   0.302  0.3062 -0.0505  0.0633
  795SOL    HW1 2204   1.732   4.247   0.208 -0.3816  0.2007  0.2431
  795SOL    HW2 2205   1.717   4.121   0.310 -0.6005  0.2383  0.2566
  796SOL     OW 2206   2.348   0.512   3.829  0.3377 -0.0524  0.6590
  796SOL    HW1 2207   2.338   0.439   3.897 -0.6680 -1.9726 -1.4255
  796SOL    HW2 2208   2.427   0.569   3.853  1.5127 -2.1387  2.0975
  797SOL     OW 2209   3.901   0.450   3.616 -0.1849 -0.1305 -0.1116
  797SOL    HW1 2210   3.859   0.535   3.585 -0.8691 -0.2258  0.5222
  797SOL    HW2 2211   3.848   0.413   3.693  0.1141 -1.1253 -0.3772
  798SOL     OW 2212   5.012   4.653   2.006  0.2766  0.3635  1.2877
  798SOL    HW1 2213   5.101   4.631   2.047  0.0256  0.2048  1.7502
  798SOL    HW2 2214   4.966   4.722   2.061 -0.0140  0.2319  1.2091
  799SOL     OW 2215   1.548   0.743   2.000  0.4069 -0.0678 -0.2454
  799SOL    HW1 2216   1.614   0.775   1.933 -1.2854  1.3656 -1.3205
  799SOL    HW2 2217   1.456   0.745   1.960 -0.2628 -2.7044  0.9403
  800SOL     OW 2218   1.225   1.629   3.635  0.4081  0.2483  0.1834
  800SOL    HW1 2219   1.203   1.662   3.727 -2.1351  0.9710 -0.6059
  800SOL    HW2 2220   1.264   1.538   3.640  0.9135  0.5314  2.0022
  801SOL     OW 2221   2.571   2.499   4.150 -0.4183 -0.0355  0.1389
  801SOL    HW1 2222   2.475   2.469   4.154  0.1453 -1.8065  2.1299
  801SOL    HW2 2223   2.575   2.598   4.164 -2.0005  0.2311 -0.9914
  802SOL     OW 2224   1.084   3.067   2.433  0.6699  0.0191  0.1238
  802SOL    HW1 2225   1.086   3.166   2.450  0.9391  0.3015 -1.3510
  802SOL    HW2 2226   1.143   3.021   2.499  0.5677  0.8436  0.8133
  803SOL     OW 2227   1.109   4.736   2.191  0.5427 -0.1002  0.0152
  803SOL    HW1 2228   1.027   4.723   2.246  0.4290 -1.3435 -0.4193
  803SOL    HW2 2229   1.176   4.666   2.215  0.3382 -0.9236 -1.6769
  804SOL     OW 2230   4.616   2.283   2.420  0.0224 -0.0776 -0.2360
  804SOL    HW1 2231   4.536   2.337   2.394 -1.0964 -0.8035  1.4846
  804SOL    HW2 2232   4.699   2.336   2.402 -0.9111  1.3288 -0.6201
  805SOL     OW 2233   4.345   2.568   0.829  0.5236  0.0269 -0.2027
  805SOL    HW1 2234   4.306   2.566   0.922  1.9970  2.4461  0.5596
  805SOL    HW2 2235   4.427   2.624   0.829  1.0261 -0.5940 -2.8592
  806SOL     OW 2236   0.204   1.115   3.122 -0.2385  0.1287 -0.1755
  806SOL    HW1 2237   0.176   1.188   3.184  0.2770  0.1171  0.0843
  806SOL    HW2 2238   0.267   1.054   3.170  0.2999  0.2130 -0.7576
  807SOL     OW 2239   1.447   4.963   4.924 -0.0353  0.3044  0.1079
  807SOL    HW1 2240   1.515   5.001   4.987  1.4602 -0.3199 -1.0669
  807SOL    HW2 2241   1.493   4.931   4.841 -1.5751 -1.5965 -0.0821
  808SOL     OW 2242   3.921   0.840   1.331 -0.5076 -0.2600 -0.4919
  808SOL    HW1 2243   3.841   0.791   1.298 -0.4779 -1.5715  1.2594
  808SOL    HW2 2244   3.995   0.776   1.350  0.4301  0.7544 -0.6006
  809SOL     OW 2245   2.932   3.383   2.114 -0.6807  0.3536  0.1004
  809SOL    HW1 2246   2.996   3.363   2.189 -0.1414  2.7392  0.3357
  809SOL    HW2 2247   2.904   3.478   2.119  0.1137  0.8816 -3.3011
  810SOL     OW 2248   3.222   0.755   2.823  0.2168 -0.2928 -0.6062
  810SOL    HW1 2249   3.188   0.663   2.804 -0.2542 -0.1518 -0.4689
  810SOL    HW2 2250   3.170   0.795   2.899  0.2939  0.1497 -0.7812
  811SOL     OW 2251   3.673   3.168   4.067 -0.3612 -0.3761  0.2358
  811SOL    HW1 2252   3.742   3.147   3.999 -1.7681 -0.4578 -1.2319
  811SOL    HW2 2253   3.627   3.084   4.096 -0.9165 -0.1704 -0.0184
  812SOL     OW 2254   4.898   1.601   3.948 -0.2613 -0.3306 -0.0106
  812SOL    HW1 2255   4.914   1.662   4.026  0.9461  0.6893 -1.0318
  812SOL    HW2 2256   4.984   1.556   3.923 -0.9081 -1.6394  0.0247
  813SOL     OW 2257   3.267   3.784   0.145  0.1681  0.1097  0.3803
  813SOL    HW1 2258   3.325   3.723   0.091 -0.4952 -0.3259  0.1605
  813SOL    HW2 2259   3.287   3.772   0.242  2.0596  1.5762  0.2500
  814SOL     OW 2260   0.385   0.620   0.766  0.3521  0.0543  0.1950
  814SOL    HW1 2261   0.450   0.675   0.818 -0.7549  0.8732  0.7710
  814SOL    HW2 2262   0.329   0.680   0.709 -0.8858 -0.4597  0.8306
  815SOL     OW 2263   0.783   4.985   1.667 -0.0344  0.3131  0.1170
  815SOL    HW1 2264   0.797   4.984   1.766 -1.8028  1.0851  0.4045
  815SOL    HW2 2265   0.750   4.895   1.637  0.1516  0.1906  0.2778
  816SOL     OW 2266   0.507   2.679   3.505 -0.5155 -0.3162 -0.7256
  816SOL    HW1 2267   0.474   2.618   3.433 -0.1038 -0.8537 -0.4689
  816SOL    HW2 2268   0.506   2.631   3.593  1.5017 -0.5891 -0.7956
  817SOL     OW 2269   3.984   4.017   4.724 -0.0969  1.0780  0.4496
  817SOL    HW1 2270   3.960   3.981   4.633  0.0765  1.4266  0.2621
  817SOL    HW2 2271   4.035   4.103   4.713  0.7561  0.6290  0.8580
  818SOL     OW 2272   4.208   0.358   0.120  0.0558 -0.1850  0.1504
  818SOL    HW1 2273   4.296   0.394   0.149 -0.8703  1.4681  1.0863
  818SOL    HW2 2274   4.219   0.307   0.035  1.8004  0.4964 -0.0771
  819SOL     OW 2275   2.340   3.174   4.443  0.1191 -0.5897  0.5990
  819SOL    HW1 2276   2.384   3.189   4.532 -0.9717  0.8473  0.9321
  819SOL    HW2 2277   2.266   3.108   4.453 -0.0951 -0.3237  0.8083
  820SOL     OW 2278   3.933   0.200   3.958 -0.0087  0.2929  0.5724
  820SOL    HW1 2279   4.031   0.215   3.968  0.1667 -0.8980  0.6950
  820SOL    HW2 2280   3.910   0.106   3.981 -1.3308  0.8100  1.5875
  821SOL     OW 2281   2.709   3.118   3.461  0.1354  0.4657 -0.0371
  821SOL    HW1 2282   2.639   3.120   3.533 -1.1960  0.2172 -1.2849
  821SOL    HW2 2283   2.668   3.087   3.376  1.9887 -0.5676 -0.6033
  822SOL     OW 2284   4.642   4.253   3.349  0.8091  0.5904  0.2629
  822SOL    HW1 2285   4.731   4.297   3.362  0.7831  0.8761 -0.4624
  822SOL    HW2 2286   4.593   4.299   3.276  1.0399 -1.0085 -0.9803
  823SOL     OW 2287   3.164   3.375   4.422  0.1251 -0.3166 -0.1987
  823SOL    HW1 2288   3.124   3.339   4.338 -0.9891 -0.9716  0.5873
  823SOL    HW2 2289   3.236   3.440   4.399  0.6461 -1.3548 -1.6623
  824SOL     OW 2290   0.976   0.281   2.121  0.5301  0.2731  0.6001
  824SOL    HW1 2291   1.020   0.370   2.125 -2.0754  1.7365 -0.5092
  824SOL    HW2 2292   0.912   0.272   2.198 -0.2186 -0.0318 -0.0415
  825SOL     OW 2293   4.117   0.507   0.618 -0.3098 -0.4626  0.4055
  825SOL    HW1 2294   4.076   0.506   0.527  0.5843  1.8064 -0.0809
  825SOL    HW2 2295   4.069   0.574   0.675  1.0299  0.3194  0.6415
  826SOL     OW 2296   1.934   4.308   2.534 -0.4192 -0.1339  0.2541
  826SOL    HW1 2297   1.971   4.401   2.524 -0.4529 -0.2597 -1.2774
  826SOL    HW2 2298   2.003   4.249   2.576 -0.0430  0.3671  0.3520
  827SOL     OW 2299   0.344   3.652   3.517 -0.1472 -0.2538 -1.2471
  827SOL    HW1 2300   0.339   3.736   3.463  4.2334  0.6566 -0.6093
  827SOL    HW2 2301   0.420   3.595   3.483 -1.1967 -2.6380  0.1442
  828SOL     OW 2302   4.761   1.644   5.018 -0.2755  0.0788 -0.0121
  828SOL    HW1 2303   4.809   1.600   4.942  2.5314  0.8703  1.1795
  828SOL    HW2 2304   4.741   1.739   4.994 -1.6791 -0.3401 -0.6356
  829SOL     OW 2305   2.001   2.456   3.225 -0.2689  0.3865  0.0289
  829SOL    HW1 2306   2.030   2.373   3.177 -0.3636 -0.6343  1.6588
  829SOL    HW2 2307   1.951   2.515   3.163 -0.5397 -0.9602 -1.0766
  830SOL     OW 2308   2.027   2.058   1.004  0.0903  0.0694  0.1013
  830SOL    HW1 2309   2.094   1.999   1.048  0.6845 -0.3643 -1.3219
  830SOL    HW2 2310   2.074   2.128   0.950 -0.5461 -0.7656 -1.6233
  831SOL     OW 2311   4.527   4.175   4.534 -0.3643  0.6123  0.1118
  831SOL    HW1 2312   4.534   4.172   4.434  0.1859 -1.2035  0.1723
  831SOL    HW2 2313   4.438   4.139   4.562  0.3350 -1.0699  0.3181
  832SOL     OW 2314   3.104   3.899   2.361 -0.8322  0.4983  0.7001
  832SOL    HW1 2315   3.066   3.817   2.403 -0.2379 -0.0423  0.1976
  832SOL    HW2 2316   3.032   3.968   2.353 -1.2864  0.1034  1.3103
  833SOL     OW 2317   5.016   3.278   0.696  0.5161  0.1500 -0.6937
  833SOL    HW1 2318   4.923   3.287   0.731 -0.0282 -1.1826 -1.6949
  833SOL    HW2 2319   5.049   3.367   0.665 -0.3266  0.6792 -0.1022
  834SOL     OW 2320   2.089   4.801   1.631  0.5339 -0.2618 -0.2181
  834SOL    HW1 2321   2.010   4.786   1.690  0.4108  1.2186  0.0157
  834SOL    HW2 2322   2.084   4.739   1.552 -0.9528 -0.0533 -0.3144
  835SOL     OW 2323   3.296   3.327   1.929 -0.4311  0.1641 -0.0640
  835SOL    HW1 2324   3.277   3.425   1.927  1.9343  0.7597  1.6156
  835SOL    HW2 2325   3.211   3.276   1.923 -1.9618  2.3852  1.3254
  836SOL     OW 2326   4.130   4.530   0.328  0.0770  0.2690 -0.7469
  836SOL    HW1 2327   4.198   4.603   0.334 -0.7191  0.8800  1.8153
  836SOL    HW2 2328   4.170   4.445   0.360  0.0733  0.2953 -0.6724
  837SOL     OW 2329   0.027   4.287   1.663 -0.4566 -0.0384  0.2123
  837SOL    HW1 2330   0.126   4.291   1.650 -0.4575 -1.0568 -0.2022
  837SOL    HW2 2331  -0.000   4.354   1.731  0.6128 -0.2560  0.8782
  838SOL     OW 2332   3.316   2.513   4.884  0.3082 -0.3096  0.0481
  838SOL    HW1 2333   3.391   2.566   4.846 -0.1864  0.2020 -0.2416
  838SOL    HW2 2334   3.335   2.415   4.874  1.5050 -0.2176  1.1276
  839SOL     OW 2335   1.073   3.943   4.624 -0.0974 -0.3166 -0.0717
  839SOL    HW1 2336   1.169   3.930   4.650 -0.2610  0.5956  1.0302
  839SOL    HW2 2337   1.044   4.035   4.648 -1.4908 -0.8428  0.3433
  840SOL     OW 2338   2.504   0.625   2.418 -0.4636  0.2921  0.0833
  840SOL    HW1 2339   2.415   0.580   2.411 -1.3488  1.9417  0.0290
  840SOL    HW2 2340   2.543   0.610   2.509 -0.9956 -0.1034  0.2494
  841SOL     OW 2341   4.528   2.646   3.256  0.3035 -0.7652 -0.2224
  841SOL    HW1 2342   4.598   2.592   3.302  0.4822 -0.7355 -0.4596
  841SOL    HW2 2343   4.495   2.597   3.176 -1.1468 -1.5415  0.8045
  842SOL     OW 2344   1.993   3.040   4.222 -0.2468  0.1176 -0.3768
  842SOL    HW1 2345   1.950   3.016   4.309  0.1710  1.3479  0.1926
  842SOL    HW2 2346   1.937   3.005   4.147 -1.4342  0.3376  0.3617
  843SOL     OW 2347   1.187   3.952   2.425 -0.1258 -0.0701 -0.5358
  843SOL    HW1 2348   1.193   4.016   2.348  0.4047  1.1686  0.4887
  843SOL    HW2 2349   1.105   3.971   2.478  1.6415  2.0922  1.6718
  844SOL     OW 2350   0.588   4.265   3.124  0.4141 -0.0159  0.2590
  844SOL    HW1 2351   0.675   4.316   3.125 -0.0504  0.7950  1.4363
  844SOL    HW2 2352   0.520   4.318   3.072  0.6934 -0.8129 -0.9602
  845SOL     OW 2353   0.065   4.132   3.617  0.3494  0.0430 -0.7188
  845SOL    HW1 2354   0.142   4.089   3.665 -0.7633  0.0238  1.1547
  845SOL    HW2 2355  -0.021   4.097   3.655 -0.6128  3.1025  0.1905
  846SOL     OW 2356   4.847   3.235   1.784 -0.0871 -0.1373  0.0318
  846SOL    HW1 2357   4.902   3.229   1.868 -1.4920  1.3460  1.1138
  846SOL    HW2 2358   4.842   3.330   1.754  0.8828 -0.6928 -2.1518
  847SOL     OW 2359   4.605   3.430   3.230  0.0826 -0.0970 -0.8999
  847SOL    HW1 2360   4.549   3.502   3.189  0.1855  1.2736  1.2173
  847SOL    HW2 2361   4.547   3.372   3.288  0.5072  0.1567 -0.2125
  848SOL     OW 2362   3.576   0.835   0.094  0.4771  0.3643  0.2094
  848SOL    HW1 2363   3.525   0.902   0.147  1.7138  1.9591 -0.5298
  848SOL    HW2 2364   3.519   0.801   0.019 -0.6865 -0.6270  1.4897
  849SOL     OW 2365   2.117   0.572   3.698  0.0750  0.8943  0.0624
  849SOL    HW1 2366   2.133   0.508   3.622 -0.9854 -0.7288  1.1329
  849SOL    HW2 2367   2.191   0.565   3.764 -0.0994  0.6721  0.2366
  850SOL     OW 2368   4.858   4.394   3.397 -0.0926  0.2966 -0.0477
  850SOL    HW1 2369   4.945   4.390   3.446  1.1526 -0.1847 -2.1627
  850SOL    HW2 2370   4.800   4.465   3.437  1.0057  0.2195  1.7849
  851SOL     OW 2371   3.807   1.003   4.228 -0.2460 -0.2404  0.2037
  851SOL    HW1 2372   3.904   0.988   4.213 -0.1074 -0.6843  1.4108
  851SOL    HW2 2373   3.769   0.926   4.281 -1.2551 -0.0914 -0.2803
  852SOL     OW 2374   2.850   1.794   2.910 -0.6093  0.1157 -0.0829
  852SOL    HW1 2375   2.785   1.839   2.972  1.2096  0.4296  1.7194
  852SOL    HW2 2376   2.850   1.696   2.926  2.2978  0.4381  3.1654
  853SOL     OW 2377   1.374   0.655   1.431 -0.2266  0.3535  0.3348
  853SOL    HW1 2378   1.417   0.585   1.373  0.2777  2.2735 -1.7503
  853SOL    HW2 2379   1.280   0.628   1.451 -0.0496 -0.9067 -0.4026
  854SOL     OW 2380   3.694   4.697   1.489  0.3762 -0.0494  0.0531
  854SOL    HW1 2381   3.664   4.615   1.538 -0.5968  0.5112  0.4181
  854SOL    HW2 2382   3.751   4.670   1.410  1.3279 -0.9910  1.0299
  855SOL     OW 2383   4.935   3.341   4.134 -0.0063 -0.6476 -0.2736
  855SOL    HW1 2384   4.919   3.401   4.213 -2.0499 -0.4428 -0.7936
  855SOL    HW2 2385   4.930   3.395   4.050 -1.0988 -1.3932 -0.7000
  856SOL     OW 2386   1.601   4.501   1.597  0.0588  0.1306 -0.2021
  856SOL    HW1 2387   1.550   4.440   1.536  0.2624  0.0091 -0.2510
  856SOL    HW2 2388   1.550   4.586   1.608  0.1366  0.2461 -0.7251
  857SOL     OW 2389   4.332   3.410   3.598 -0.2122  0.3880  0.1544
  857SOL    HW1 2390   4.299   3.352   3.673 -0.1514  1.1538  0.7793
  857SOL    HW2 2391   4.266   3.409   3.524 -1.2251  1.1984  1.0227
  858SOL     OW 2392   0.570   1.603   0.213  0.1002  0.2522  0.1179
  858SOL    HW1 2393   0.559   1.598   0.114 -0.5016 -0.1424  0.1964
  858SOL    HW2 2394   0.599   1.514   0.248  0.1835  0.3547  0.3112
  859SOL     OW 2395   0.842   4.611   2.777 -0.1733 -0.4028  0.1965
  859SOL    HW1 2396   0.870   4.549   2.703  0.0022 -1.1588  0.8863
  859SOL    HW2 2397   0.909   4.607   2.851 -0.8575 -0.4033  0.8250
  860SOL     OW 2398   2.724   3.636   4.448  0.2658 -0.1694  0.1040
  860SOL    HW1 2399   2.691   3.649   4.542  1.4355  1.1512  0.3684
  860SOL    HW2 2400   2.780   3.553   4.444  1.1209  0.3553  0.8512
  861SOL     OW 2401   2.406   1.757   1.613  0.1085 -0.4126  0.0754
  861SOL    HW1 2402   2.387   1.666   1.576 -0.9903 -0.3755  0.4944
  861SOL    HW2 2403   2.325   1.815   1.599  1.1445  0.8101 -1.0976
  862SOL     OW 2404   4.930   0.986   0.937  0.0899  0.0801  0.9820
  862SOL    HW1 2405   4.914   1.048   0.860 -1.2215 -0.2043  1.0051
  862SOL    HW2 2406   4.865   1.006   1.010 -1.1040 -1.9751  0.5748
  863SOL     OW 2407   0.202   1.189   3.803  0.3339  0.3775  0.0529
  863SOL    HW1 2408   0.206   1.164   3.899 -0.7513  0.3075  0.1007
  863SOL    HW2 2409   0.107   1.207   3.777  0.4617 -0.6260 -1.2574
  864SOL     OW 2410   4.081   4.096   2.961  0.4662 -0.4316  0.0472
  864SOL    HW1 2411   4.171   4.091   3.006  0.6065 -0.6381 -0.2574
  864SOL    HW2 2412   4.086   4.160   2.885  0.0087  0.5592  0.8228
  865SOL     OW 2413   4.450   4.416   0.825 -0.5717 -0.2798  0.1734
  865SOL    HW1 2414   4.397   4.405   0.909 -2.0222  0.0808 -0.6642
  865SOL    HW2 2415   4.442   4.510   0.792 -0.3557 -0.5132 -0.5680
  866SOL     OW 2416   3.495   2.619   3.739  0.3646 -0.3831  0.1657
  866SOL    HW1 2417   3.527   2.612   3.833  1.9160 -2.8675 -0.4653
  866SOL    HW2 2418   3.527   2.704   3.698 -0.9296  1.0706  2.0351
  867SOL     OW 2419   0.292   3.355   1.057 -0.8312  0.2231 -0.5247
  867SOL    HW1 2420   0.389   3.347   1.082 -1.4751  0.4283  2.4093
  867SOL    HW2 2421   0.265   3.451   1.059 -1.6092  0.0161  1.2093
  868SOL     OW 2422   3.635   4.836   0.792 -0.1585  0.2238  0.2951
  868SOL    HW1 2423   3.732   4.826   0.770 -0.0146  2.0008  0.0013
  868SOL    HW2 2424   3.581   4.792   0.720  0.4009 -1.6263  0.9477
  869SOL     OW 2425   3.896   4.021   3.150 -0.5573 -0.1831 -0.3448
  869SOL    HW1 2426   3.947   4.040   3.066 -0.8514 -0.7431 -0.6575
  869SOL    HW2 2427   3.956   3.976   3.216 -0.9736 -2.1303 -1.2309
  870SOL     OW 2428   0.665   4.856   3.052  0.1586  0.0944  0.0494
  870SOL    HW1 2429   0.624   4.946   3.035 -0.1960 -0.1494 -0.3999
  870SOL    HW2 2430   0.761   4.857   3.022 -0.1381  0.0125 -0.9379
  871SOL     OW 2431   2.928   4.413   3.001 -0.3414  0.4054 -0.3686
  871SOL    HW1 2432   3.023   4.389   3.021  0.2157  1.7827 -1.2469
  871SOL    HW2 2433   2.879   4.428   3.087 -0.2498 -1.9576  0.1519
  872SOL     OW 2434   2.790   1.573   4.151 -0.0454 -0.3842  0.1219
  872SOL    HW1 2435   2.838   1.565   4.063 -1.9867 -1.5189 -0.8918
  872SOL    HW2 2436   2.818   1.499   4.211 -0.8162 -1.3362 -0.6475
  873SOL     OW 2437   2.695   2.269   3.793 -0.3796  0.5314 -0.2335
  873SOL    HW1 2438   2.679   2.213   3.712 -0.1821 -0.9114  0.6750
  873SOL    HW2 2439   2.793   2.291   3.800 -0.2628 -0.0459  0.0302
  874SOL     OW 2440   0.272   4.558   3.644 -0.0674  0.3540 -0.7929
  874SOL    HW1 2441   0.250   4.585   3.550 -3.0916  1.9322  0.2161
  874SOL    HW2 2442   0.302   4.639   3.696 -0.1747 -0.1181  0.0228
  875SOL     OW 2443   3.625   4.764   2.439  0.2956 -0.4944 -0.0598
  875SOL    HW1 2444   3.652   4.764   2.343 -0.1495  0.2150 -0.1967
  875SOL    HW2 2445   3.615   4.670   2.472 -0.9877 -0.7485 -1.1177
  876SOL     OW 2446   1.696   0.219   0.690 -0.3241  0.5664 -0.0504
  876SOL    HW1 2447   1.739   0.257   0.772 -0.3071  1.0423 -0.2761
  876SOL    HW2 2448   1.763   0.163   0.641 -0.8076 -1.1671  1.1503
  877SOL     OW 2449   1.502   3.388   4.621  0.0507  0.4299 -0.1527
  877SOL    HW1 2450   1.496   3.478   4.664  0.4445 -0.0516  0.9569
  877SOL    HW2 2451   1.592   3.348   4.640 -0.2217 -0.3151 -0.4018
  878SOL     OW 2452   0.706   1.456   1.868 -0.3458 -0.0533 -0.7508
  878SOL    HW1 2453   0.798   1.462   1.908 -0.6780  1.1208 -0.1044
  878SOL    HW2 2454   0.668   1.365   1.883  0.8824 -0.7110 -1.4363
  879SOL     OW 2455   1.698   0.136   1.568 -0.2647  0.7125 -0.1764
  879SOL    HW1 2456   1.787   0.092   1.559  0.2310  1.3744  1.2561
  879SOL    HW2 2457   1.697   0.195   1.649 -1.4175  2.1163 -1.1553
  880SOL     OW 2458   4.802   1.427   1.652  0.2596 -0.0664 -0.2647
  880SOL    HW1 2459   4.788   1.520   1.685  0.1529 -0.1004 -0.2152
  880SOL    HW2 2460   4.877   1.426   1.586 -1.6092  0.5855 -2.5178
  881SOL     OW 2461   1.440   0.384   2.673 -0.3069 -0.1985 -0.1016
  881SOL    HW1 2462   1.472   0.350   2.585 -0.3095 -0.8240  0.1352
  881SOL    HW2 2463   1.469   0.322   2.746 -0.2820  0.3252  0.3452
  882SOL     OW 2464   4.486   4.945   0.554  0.0576 -0.0685  0.0229
  882SOL    HW1 2465   4.394   4.932   0.517  0.1135  0.7205 -0.4121
  882SOL    HW2 2466   4.543   4.866   0.531 -0.1659  0.0007 -0.8051
  883SOL     OW 2467   3.731   2.229   3.699 -0.0508 -0.0065 -0.0258
  883SOL    HW1 2468   3.679   2.146   3.677 -0.2720 -0.3774  1.7664
  883SOL    HW2 2469   3.704   2.263   3.788  1.2177  1.0754 -0.0208
  884SOL     OW 2470   3.323   0.057   2.351  0.3463  0.6045  0.2999
  884SOL    HW1 2471   3.403   0.117   2.351  0.5635  0.3236  0.9867
  884SOL    HW2 2472   3.339  -0.019   2.288  0.9258  0.1694  0.9470
  885SOL     OW 2473   3.073   2.531   1.963  0.7314 -0.0796 -0.3784
  885SOL    HW1 2474   3.121   2.520   1.876  0.5125 -1.0907 -0.3772
  885SOL    HW2 2475   2.974   2.535   1.947  0.6239 -1.3074 -0.0968
  886SOL     OW 2476   1.023   0.568   4.131 -0.2585  0.1560  0.4402
  886SOL    HW1 2477   1.005   0.584   4.034 -0.9847 -0.8384  0.3954
  886SOL    HW2 2478   1.122   0.559   4.146 -0.1974 -0.7493 -0.3995
  887SOL     OW 2479   3.471   1.846   2.155 -0.2563 -0.3196 -0.4672
  887SOL    HW1 2480   3.468   1.757   2.201 -0.9284  0.2228  0.5757
  887SOL    HW2 2481   3.403   1.906   2.195  1.0707  1.1068 -0.2632
  888SOL     OW 2482   0.403   2.152   0.669  0.0115 -0.0425  0.2531
  888SOL    HW1 2483   0.406   2.059   0.704 -0.7081  0.6851  2.4054
  888SOL    HW2 2484   0.450   2.213   0.732 -0.8851  1.2849 -0.3100
  889SOL     OW 2485   2.283   4.774   0.100 -0.3952  0.1669  0.1469
  889SOL    HW1 2486   2.250   4.761   0.194 -0.0802  0.2828  0.2752
  889SOL    HW2 2487   2.365   4.719   0.086 -0.6051 -0.0752 -0.1535
  890SOL     OW 2488   3.970   0.832   4.701  0.4031 -0.3431  0.3259
  890SOL    HW1 2489   3.878   0.858   4.730  0.1357 -1.3520  0.4171
  890SOL    HW2 2490   3.965   0.765   4.628  1.0818  1.2750 -1.2976
  891SOL     OW 2491   3.801   3.090   1.895 -0.5674 -0.3038  0.2074
  891SOL    HW1 2492   3.831   3.067   1.988  2.1024 -0.6583 -0.6635
  891SOL    HW2 2493   3.774   3.186   1.893  1.9266  0.4922  0.8517
  892SOL     OW 2494   4.188   3.335   2.342 -0.6892 -0.5607 -0.3340
  892SOL    HW1 2495   4.136   3.327   2.257 -1.1692  0.5462 -0.1656
  892SOL    HW2 2496   4.170   3.256   2.400  2.3659 -3.2540 -2.6317
  893SOL     OW 2497   4.831   0.345   1.209 -0.5645  0.2648 -0.2174
  893SOL    HW1 2498   4.766   0.405   1.162 -1.3897  0.2407  0.8257
  893SOL    HW2 2499   4.791   0.318   1.297  0.8546  0.2006  0.4242
  894SOL     OW 2500   1.525   4.300   3.451  0.0163 -0.3537  0.3916
  894SOL    HW1 2501   1.551   4.352   3.370  1.6967 -1.6209  0.0759
  894SOL    HW2 2502   1.462   4.227   3.426 -1.9131  1.0847  0.7562
  895SOL     OW 2503   2.396   4.082   1.556  0.2409 -0.2408  0.0450
  895SOL    HW1 2504   2.329   4.008   1.552 -0.5643  0.5208 -0.7198
  895SOL    HW2 2505   2.360   4.163   1.510  0.2887  1.3127  2.5545
  896SOL     OW 2506   2.297   2.725   2.237 -0.3718 -0.3254 -0.2231
  896SOL    HW1 2507   2.316   2.634   2.202  0.4820 -1.3465  2.6435
  896SOL    HW2 2508   2.329   2.793   2.170  0.6523 -2.0909 -1.6316
  897SOL     OW 2509   2.041   2.814   0.382  0.0427 -0.0374 -0.2881
  897SOL    HW1 2510   2.052   2.817   0.481  2.1467 -0.3199 -0.4792
  897SOL    HW2 2511   1.964   2.754   0.359 -0.1179 -0.4111  1.1384
  898SOL     OW 2512   1.957   2.985   1.853 -0.2916 -0.0167 -0.0722
  898SOL    HW1 2513   2.018   2.925   1.905 -2.7910 -0.7658  2.2530
  898SOL    HW2 2514   1.869   2.939   1.838 -1.4103  2.1136 -0.4910
  899SOL     OW 2515   2.298   1.202   2.502  0.1829 -0.3516  0.0189
  899SOL    HW1 2516   2.214   1.159   2.536  0.1650  0.8044  1.5400
  899SOL    HW2 2517   2.305   1.189   2.403 -1.3655 -1.1800 -0.0014
  900SOL     OW 2518   2.166   4.991   3.961 -0.2107 -0.0314  0.1890
  900SOL    HW1 2519   2.089   5.034   3.914  0.4408  0.8268 -0.1206
  900SOL    HW2 2520   2.184   5.039   4.046  1.4962  1.3668 -0.8824
  901SOL     OW 2521   4.682   3.108   3.180  0.4572  0.1415 -0.4741
  901SOL    HW1 2522   4.631   3.144   3.258  0.9277 -0.2574  0.0176
  901SOL    HW2 2523   4.689   3.009   3.187 -0.5235 -0.0354 -1.6410
  902SOL     OW 2524   0.269   1.686   4.803 -0.4570 -0.2871  0.7050
  902SOL    HW1 2525   0.230   1.680   4.895  0.9456  1.0030  1.4303
  902SOL    HW2 2526   0.283   1.594   4.767 -1.5416 -0.8019  1.5573
  903SOL     OW 2527   0.548   3.396   3.223  0.4318 -0.2579  0.0054
  903SOL    HW1 2528   0.566   3.478   3.276 -0.6302 -0.5177  0.7920
  903SOL    HW2 2529   0.455   3.398   3.188  0.5764 -0.8743 -0.4306
  904SOL     OW 2530   4.452   1.651   4.939 -0.6868  0.5021 -0.6694
  904SOL    HW1 2531   4.372   1.644   4.999 -2.7828  1.9072 -3.0904
  904SOL    HW2 2532   4.516   1.718   4.976 -1.1423  0.1736  0.7608
  905SOL     OW 2533   4.244   3.216   0.028  0.3413 -0.3950 -0.0334
  905SOL    HW1 2534   4.208   3.245   0.117 -3.9641  2.5408 -2.4231
  905SOL    HW2 2535   4.194   3.135  -0.003 -0.2595  0.3512 -1.0245
  906SOL     OW 2536   1.554   3.688   2.505 -0.3315 -0.2168  0.5000
  906SOL    HW1 2537   1.591   3.597   2.489 -0.3461 -0.3860  1.3860
  906SOL    HW2 2538   1.519   3.726   2.419 -0.5641 -1.1486  0.1800
  907SOL     OW 2539   3.548   4.214   1.384 -0.2854 -0.1506 -0.7000
  907SOL    HW1 2540   3.498   4.300   1.394 -0.5909 -0.3315 -0.6464
  907SOL    HW2 2541   3.612   4.203   1.460  0.7288  0.6654 -1.4108
  908SOL     OW 2542   2.835   2.696   1.365  0.1515  0.5971 -0.0632
  908SOL    HW1 2543   2.799   2.616   1.414 -0.0870  0.9055  0.2702
  908SOL    HW2 2544   2.908   2.737   1.419 -0.4468  1.2331  0.2804
  909SOL     OW 2545   1.639   3.655   4.260  0.3976 -0.0351  0.2060
  909SOL    HW1 2546   1.708   3.671   4.189 -0.4034 -1.1681 -0.8725
  909SOL    HW2 2547   1.631   3.736   4.317 -0.4583  1.7980 -2.3303
  910SOL     OW 2548   3.773   2.793   1.348  0.4267 -0.6457  0.5445
  910SOL    HW1 2549   3.801   2.889   1.353  1.2187 -0.7083 -1.6453
  910SOL    HW2 2550   3.681   2.784   1.385 -0.0585  1.1655 -0.0665
  911SOL     OW 2551   2.335   0.356   4.976  0.5324  0.0661 -0.3978
  911SOL    HW1 2552   2.259   0.294   4.956  0.7949  0.0814 -1.4938
  911SOL    HW2 2553   2.383   0.325   5.058  0.6486 -1.1740 -0.9207
  912SOL     OW 2554   3.364   2.355   0.859 -0.3020 -0.1827 -0.0335
  912SOL    HW1 2555   3.396   2.400   0.943 -2.6150 -0.8278  1.2916
  912SOL    HW2 2556   3.348   2.258   0.877  1.0936 -0.7965 -1.8362
  913SOL     OW 2557   1.027   2.441   2.885  0.0070  0.2650 -0.0613
  913SOL    HW1 2558   0.937   2.466   2.922 -0.7049  1.0734 -2.1753
  913SOL    HW2 2559   1.015   2.378   2.808  1.2732  0.1438 -0.1812
  914SOL     OW 2560   0.646   0.287   4.241 -0.0756  0.0733  0.8303
  914SOL    HW1 2561   0.585   0.292   4.161  1.3490 -0.0862 -0.3044
  914SOL    HW2 2562   0.683   0.378   4.259  0.3217 -0.0629  0.7173
  915SOL     OW 2563   4.007   1.848   5.034 -0.0361  0.3233  0.0145
  915SOL    HW1 2564   3.984   1.891   5.121 -1.3199  0.2849 -0.2943
  915SOL    HW2 2565   4.077   1.902   4.987  0.7268  0.3075  1.0804
  916SOL     OW 2566   4.188   2.920   0.870  0.2512 -1.1799 -0.3836
  916SOL    HW1 2567   4.223   2.977   0.945 -1.9537 -1.9505  1.3577
  916SOL    HW2 2568   4.230   2.830   0.874  0.4101 -1.1037 -0.3054
  917SOL     OW 2569   1.757   1.539   1.350  0.5279 -0.0322  0.0380
  917SOL    HW1 2570   1.756   1.440   1.339 -0.8298 -0.2154  1.4127
  917SOL    HW2 2571   1.718   1.582   1.268  2.0036 -0.5542 -0.9624
  918SOL     OW 2572   1.182   3.625   4.792 -0.6593  0.2332 -0.3295
  918SOL    HW1 2573   1.151   3.706   4.841 -1.3359 -0.1954 -0.0402
  918SOL    HW2 2574   1.104   3.577   4.752 -0.5075 -1.3203  1.1105
  919SOL     OW 2575   1.312   4.458   4.346  0.2167 -0.0998  0.1948
  919SOL    HW1 2576   1.317   4.423   4.252 -0.5358  1.0930 -0.3116
  919SOL    HW2 2577   1.225   4.506   4.359  0.4607  0.0375  1.4039
  920SOL     OW 2578   0.398   3.716   0.730 -0.3135 -0.4495 -0.0232
  920SOL    HW1 2579   0.417   3.743   0.635  2.1397  1.5379  0.9258
  920SOL    HW2 2580   0.359   3.793   0.780 -1.3599 -1.4041  0.6856
  921SOL     OW 2581   2.932   0.868   4.478 -0.6257  0.0264  0.4081
  921SOL    HW1 2582   3.001   0.877   4.550 -0.5379 -0.4094  0.3842
  921SOL    HW2 2583   2.930   0.773   4.447  0.8338  0.5789 -1.6197
  922SOL     OW 2584   2.157   1.557   0.139  0.1643 -0.7491 -0.4380
  922SOL    HW1 2585   2.214   1.597   0.211  3.3075 -0.3373 -2.9028
  922SOL    HW2 2586   2.116   1.472   0.172  1.7092 -0.7322  1.7464
  923SOL     OW 2587   0.732   1.136   1.037 -0.2138 -0.2010 -0.1736
  923SOL    HW1 2588   0.751   1.093   1.125  0.3910  0.9660  0.2823
  923SOL    HW2 2589   0.741   1.235   1.045 -1.2440  0.0095 -1.2869
  924SOL     OW 2590   0.082   4.063   2.503  0.5498  0.0344 -0.9172
  924SOL    HW1 2591   0.162   4.003   2.499  0.0308 -0.8873  1.2739
  924SOL    HW2 2592   0.003   4.015   2.464  0.2898 -0.4463  0.1907
  925SOL     OW 2593   1.563   0.950   0.199 -0.0774 -0.2274  0.1452
  925SOL    HW1 2594   1.642   0.892   0.177  0.1209  0.3552 -0.7084
  925SOL    HW2 2595   1.492   0.935   0.131  0.6989  1.9013 -1.2171
  926SOL     OW 2596   5.025   1.383   5.001 -0.0519  0.2089 -0.0560
  926SOL    HW1 2597   5.077   1.309   5.045 -1.3297  0.3888  1.8766
  926SOL    HW2 2598   4.981   1.439   5.071 -1.5276  1.0501 -1.5763
  927SOL     OW 2599   4.131   1.555   2.996 -0.4243  0.2343  0.1233
  927SOL    HW1 2600   4.104   1.648   2.974  1.7492  0.5341 -1.6602
  927SOL    HW2 2601   4.069   1.517   3.065 -2.4410  2.3293 -0.4275
  928SOL     OW 2602   0.622   0.777   0.201 -0.1774  0.0699  0.0131
  928SOL    HW1 2603   0.547   0.811   0.259 -0.1514  1.2110 -0.5797
  928SOL    HW2 2604   0.704   0.831   0.219 -0.3989  1.0493 -1.6576
  929SOL     OW 2605   4.743   1.000   2.685 -0.0526 -0.2928  0.0664
  929SOL    HW1 2606   4.801   1.082   2.680  0.0174 -0.3678 -0.4634
  929SOL    HW2 2607   4.793   0.926   2.730 -0.1728 -0.0015  0.6900
  930SOL     OW 2608   3.119   1.283   4.296 -0.9646  0.1825  0.2228
  930SOL    HW1 2609   3.113   1.232   4.381 -0.1628 -0.9844 -0.4009
  930SOL    HW2 2610   3.026   1.298   4.260 -1.5004  2.4236  2.2358
  931SOL     OW 2611   2.367   4.937   2.147  0.1169  0.4112  0.1624
  931SOL    HW1 2612   2.314   5.006   2.196 -0.2253  0.6315 -0.5043
  931SOL    HW2 2613   2.464   4.953   2.162  0.0095  0.2166  1.1110
  932SOL     OW 2614   0.827   4.890   3.439  0.5284  0.3275 -0.0821
  932SOL    HW1 2615   0.731   4.901   3.415 -0.0977 -1.9753  1.0322
  932SOL    HW2 2616   0.877   4.974   3.418 -1.6892  1.5628 -0.7375
  933SOL     OW 2617   4.769   1.177   3.368  0.6067 -0.6942  0.7176
  933SOL    HW1 2618   4.828   1.150   3.444  1.1792  1.2530  1.0195
  933SOL    HW2 2619   4.688   1.119   3.367  0.8127 -1.0929  2.5303
  934SOL     OW 2620   1.905   0.746   3.037  0.0575 -0.2309  0.3374
  934SOL    HW1 2621   2.003   0.723   3.043  0.0932 -0.7892 -1.5237
  934SOL    HW2 2622   1.891   0.841   3.065  0.9936 -0.3934  1.4325
  935SOL     OW 2623   3.647   3.995   3.461 -0.3949 -0.2958  0.0186
  935SOL    HW1 2624   3.595   4.016   3.544 -0.1259  1.1908 -0.1650
  935SOL    HW2 2625   3.744   4.005   3.479 -0.3732  1.2871 -0.7609
  936SOL     OW 2626   4.567   4.393   0.531  0.1553  0.1666  0.6720
  936SOL    HW1 2627   4.508   4.461   0.575 -0.0874  0.7970 -0.5686
  936SOL    HW2 2628   4.651   4.383   0.583 -0.9474 -0.6146  2.3860
  937SOL     OW 2629   3.246   4.700   2.353  0.5702  0.8838  0.0084
  937SOL    HW1 2630   3.276   4.659   2.440 -1.1036  0.1591  0.2787
  937SOL    HW2 2631   3.156   4.743   2.366 -0.5990 -0.8772 -1.7917
  938SOL     OW 2632   3.135   0.584   3.398 -0.0298 -0.1792 -0.3149
  938SOL    HW1 2633   3.225   0.583   3.356  0.1380  0.2854  0.0251
  938SOL    HW2 2634   3.068   0.547   3.333  0.1700  0.8289 -1.1352
  939SOL     OW 2635   1.778   1.958   0.439  0.1560  0.1599 -0.0302
  939SOL    HW1 2636   1.782   2.057   0.427 -0.5505  0.1392 -0.4591
  939SOL    HW2 2637   1.861   1.917   0.400  0.1289  0.5204 -0.4734
  940SOL     OW 2638   1.732   4.847   0.891 -0.5271  0.1478 -0.1312
  940SOL    HW1 2639   1.694   4.924   0.840 -1.1551  0.2527  0.4830
  940SOL    HW2 2640   1.683   4.836   0.977 -0.1658 -0.6740 -0.0147
  941SOL     OW 2641   0.768   3.542   1.314 -0.3833 -0.6902 -0.2529
  941SOL    HW1 2642   0.794   3.445   1.309 -2.6643 -1.3253 -1.5300
  941SOL    HW2 2643   0.693   3.552   1.380  0.3546  0.3798  0.4565
  942SOL     OW 2644   0.712   1.515   4.312  0.0634  0.4621 -0.1368
  942SOL    HW1 2645   0.629   1.560   4.343  0.2537  2.1869 -1.8942
  942SOL    HW2 2646   0.791   1.556   4.358  0.1108  0.6399 -0.3749
  943SOL     OW 2647   3.684   2.911   4.394 -0.0688 -0.4109 -0.2615
  943SOL    HW1 2648   3.701   2.994   4.448 -0.6074  1.1012 -2.2579
  943SOL    HW2 2649   3.664   2.835   4.455  0.2700  0.9652  1.6679
  944SOL     OW 2650   4.614   3.676   2.971 -0.1782  0.5792 -0.1046
  944SOL    HW1 2651   4.705   3.642   2.994 -0.4618  0.5387  0.9768
  944SOL    HW2 2652   4.596   3.760   3.022 -1.6867 -0.6953  1.5560
  945SOL     OW 2653   4.537   3.235   3.418  0.4211 -0.3511 -0.0719
  945SOL    HW1 2654   4.478   3.291   3.477  2.7464  2.1542  0.0883
  945SOL    HW2 2655   4.620   3.210   3.469  1.0711 -0.8355 -1.3358
  946SOL     OW 2656   2.667   2.122   3.565 -0.1034  0.1118 -0.8610
  946SOL    HW1 2657   2.653   2.026   3.588 -3.4280  0.2910 -1.6394
  946SOL    HW2 2658   2.724   2.128   3.483 -0.9599 -1.3136 -1.6050
  947SOL     OW 2659   1.970   4.937   2.966 -0.1632 -0.1324  0.1408
  947SOL    HW1 2660   1.952   4.853   3.018  2.0240 -0.2619  0.7727
  947SOL    HW2 2661   1.990   4.913   2.871  1.4844 -0.4794  0.5439
  948SOL     OW 2662   3.384   3.282   3.282  0.6101  0.2361 -0.1857
  948SOL    HW1 2663   3.383   3.373   3.241 -0.2389  0.1379 -0.3969
  948SOL    HW2 2664   3.328   3.220   3.227  0.9911 -0.3636  0.0857
  949SOL     OW 2665   2.287   2.760   0.762  0.1250  0.0155 -0.1392
  949SOL    HW1 2666   2.385   2.753   0.740 -0.1508 -2.7331 -0.9174
  949SOL    HW2 2667   2.269   2.712   0.847 -0.5032  0.9733  0.2850
  950SOL     OW 2668   2.367   1.523   4.780 -0.4142  0.3749 -0.4802
  950SOL    HW1 2669   2.354   1.501   4.684  1.0350 -0.6085 -0.4870
  950SOL    HW2 2670   2.459   1.560   4.793 -0.9931  1.5645  0.3611
  951SOL     OW 2671   3.353   1.539   1.009  0.5311 -0.1853 -0.0461
  951SOL    HW1 2672   3.277   1.480   1.038  1.1400 -1.4865 -0.9820
  951SOL    HW2 2673   3.320   1.632   0.996 -1.4342 -1.1321 -2.5904
  952SOL     OW 2674   0.980   4.046   2.570 -0.1258 -0.5501 -0.0403
  952SOL    HW1 2675   1.052   4.090   2.624 -0.7460 -1.0010  1.1900
  952SOL    HW2 2676   0.961   4.101   2.488  2.2673 -0.9149 -0.9134
  953SOL     OW 2677   0.477   1.159   0.457 -0.3205  0.4386 -0.0927
  953SOL    HW1 2678   0.431   1.159   0.545  3.4289  1.4030  2.0832
  953SOL    HW2 2679   0.466   1.069   0.413 -1.9474 -0.1885  1.4971
  954SOL     OW 2680   1.632   3.698   1.381 -0.1839 -0.3931  0.0877
  954SOL    HW1 2681   1.652   3.600   1.369  0.6471 -0.4611  1.7955
  954SOL    HW2 2682   1.568   3.710   1.456  1.4151  0.4809  1.3591
  955SOL     OW 2683   2.516   2.320   0.861 -0.5307 -0.1546 -0.5807
  955SOL    HW1 2684   2.508   2.236   0.916 -0.0113  0.1510 -0.0245
  955SOL    HW2 2685   2.510   2.400   0.921  1.1273  0.1731 -0.7942
  956SOL     OW 2686   0.919   0.359   3.727 -0.1162 -0.4362  0.2182
  956SOL    HW1 2687   0.879   0.295   3.662  0.7471  0.0917 -0.8837
  956SOL    HW2 2688   1.000   0.318   3.769  0.8229  0.1145 -0.9745
  957SOL     OW 2689   3.843   3.695   2.288  0.5864 -0.3924  0.1308
  957SOL    HW1 2690   3.921   3.721   2.232 -0.2670  1.7611 -0.1295
  957SOL    HW2 2691   3.758   3.720   2.242 -0.1544  0.8270  2.0575
  958SOL     OW 2692   2.928   0.807   0.700  0.5235 -0.2028  0.6310
  958SOL    HW1 2693   2.933   0.874   0.626  0.9516 -1.8059 -0.8425
  958SOL    HW2 2694   2.983   0.839   0.778  2.8790  0.0076 -1.0112
  959SOL     OW 2695   3.864   1.197   3.074 -0.6746 -0.6490 -0.2734
  959SOL    HW1 2696   3.883   1.101   3.091  0.5187 -0.0088  2.6554
  959SOL    HW2 2697   3.935   1.253   3.116 -2.7216  1.5941  0.4417
  960SOL     OW 2698   4.535   1.859   0.499  0.4077  0.2530 -0.5202
  960SOL    HW1 2699   4.606   1.929   0.508 -1.5868  2.2055  1.1673
  960SOL    HW2 2700   4.570   1.783   0.444  3.4224  1.5451 -0.5838
  961SOL     OW 2701   0.203   0.491   3.624 -0.4226 -0.1713 -0.3144
  961SOL    HW1 2702   0.295   0.453   3.623 -1.1542 -2.1744  1.2578
  961SOL    HW2 2703   0.199   0.568   3.687  0.2294  0.1091 -0.6120
  962SOL     OW 2704   4.523   1.677   2.497  0.1471 -0.2001  0.5250
  962SOL    HW1 2705   4.593   1.678   2.426  0.2278  0.7775  0.6109
  962SOL    HW2 2706   4.523   1.588   2.542  1.0093 -0.3708  0.2040
  963SOL     OW 2707   2.982   3.967   3.826 -0.5786 -0.1348  0.1690
  963SOL    HW1 2708   2.932   4.022   3.893 -0.8805  2.3394 -1.9350
  963SOL    HW2 2709   3.078   3.995   3.825 -0.4020 -0.7286  0.1137
  964SOL     OW 2710   2.534   0.311   2.416  0.3613  0.0518 -0.3630
  964SOL    HW1 2711   2.510   0.378   2.486 -0.0488  1.2536 -1.5906
  964SOL    HW2 2712   2.478   0.327   2.334  0.3134 -1.7587 -0.7340
  965SOL     OW 2713   4.265   2.211   2.649  0.0916  0.0523  0.5709
  965SOL    HW1 2714   4.230   2.224   2.556  3.3782  0.7998 -0.7018
  965SOL    HW2 2715   4.286   2.114   2.662  0.5692  0.0951  0.1476
  966SOL     OW 2716   0.695   2.778   3.311  0.1929 -0.3090  0.2573
  966SOL    HW1 2717   0.627   2.748   3.378  0.6908  1.3998  1.6009
  966SOL    HW2 2718   0.766   2.708   3.302 -1.2868 -1.7859 -0.6110
  967SOL     OW 2719   2.580   1.476   1.742 -0.2654  0.2568 -0.1902
  967SOL    HW1 2720   2.633   1.467   1.658 -1.0194  2.2691 -0.9287
  967SOL    HW2 2721   2.574   1.386   1.787 -1.4596 -1.3293 -3.2446
  968SOL     OW 2722   0.706   2.018   0.846 -0.3563  0.1067  0.0930
  968SOL    HW1 2723   0.720   2.045   0.751  0.5872  2.5390  0.8562
  968SOL    HW2 2724   0.623   1.963   0.853 -1.3643  1.2526 -1.9118
  969SOL     OW 2725   4.856   4.392   4.015 -0.1484  0.2015  0.3596
  969SOL    HW1 2726   4.935   4.344   3.978 -0.6119 -0.2546 -0.0419
  969SOL    HW2 2727   4.780   4.388   3.950 -1.2245 -1.2796  1.6403
  970SOL     OW 2728   4.060   4.983   3.332  1.3813 -0.3313 -0.0378
  970SOL    HW1 2729   3.963   4.964   3.348  1.3163  0.9335  1.3670
  970SOL    HW2 2730   4.116   4.931   3.397  1.6206 -0.7898 -0.6095
  971SOL     OW 2731   0.996   4.656   0.304  0.1377 -0.3401  0.2018
  971SOL    HW1 2732   0.984   4.587   0.232  1.2131  1.1932 -1.5362
  971SOL    HW2 2733   0.974   4.747   0.267  0.4763  0.4725  1.9016
  972SOL     OW 2734   4.106   2.160   1.305 -0.4764  0.4611 -0.2287
  972SOL    HW1 2735   4.025   2.188   1.253 -1.0309 -1.7261 -0.6669
  972SOL    HW2 2736   4.172   2.235   1.308 -1.2433  1.3006 -2.4680
  973SOL     OW 2737   4.249   3.211   1.780 -0.4681  0.2382  0.0817
  973SOL    HW1 2738   4.186   3.244   1.710 -0.8592  1.3309  0.9133
  973SOL    HW2 2739   4.246   3.273   1.858  0.3541 -0.6663  0.8473
  974SOL     OW 2740   0.626   3.896   3.267 -0.0641  0.1652  0.5942
  974SOL    HW1 2741   0.594   3.908   3.173 -1.3150 -1.7630  0.6957
  974SOL    HW2 2742   0.549   3.907   3.330  0.3295 -0.5227  1.2127
  975SOL     OW 2743   2.285   0.468   2.418  0.3947 -0.1224 -0.0730
  975SOL    HW1 2744   2.247   0.387   2.461 -0.3909  0.2928  0.0311
  975SOL    HW2 2745   2.211   0.523   2.379  1.0398 -0.3416 -1.7145
  976SOL     OW 2746   4.174   0.454   3.557  0.3646 -0.9515 -0.2645
  976SOL    HW1 2747   4.211   0.380   3.612  3.0180 -0.8272 -1.7120
  976SOL    HW2 2748   4.078   0.468   3.580  1.0163 -1.5860  3.4944
  977SOL     OW 2749   2.131   1.547   4.926  0.3244  0.3827 -0.0053
  977SOL    HW1 2750   2.217   1.524   4.880  0.5540 -0.3240  0.7402
  977SOL    HW2 2751   2.149   1.558   5.024  0.1306  3.2742 -0.2017
  978SOL     OW 2752   0.499   4.066   1.964  0.4795  0.1844  0.0192
  978SOL    HW1 2753   0.514   3.976   2.003  2.0622  1.1684  1.8758
  978SOL    HW2 2754   0.445   4.122   2.027  1.5644  1.2581  0.0465
  979SOL     OW 2755   0.925   0.707   2.792  0.2622 -0.0826  0.4278
  979SOL    HW1 2756   0.994   0.751   2.735  0.6155 -0.6245  0.4363
  979SOL    HW2 2757   0.923   0.609   2.773 -0.0500 -0.1703  0.8999
  980SOL     OW 2758   3.684   3.060   0.296 -0.8609 -0.4181 -1.0438
  980SOL    HW1 2759   3.738   3.123   0.352 -0.5431 -0.7045 -1.0263
  980SOL    HW2 2760   3.587   3.071   0.318 -0.6019 -2.6338  1.8564
  981SOL     OW 2761   4.524   4.989   3.226  0.5448 -0.1693 -0.3039
  981SOL    HW1 2762   4.586   5.045   3.170  1.3873 -0.6357  0.1399
  981SOL    HW2 2763   4.466   4.934   3.166 -0.4218  1.2867 -0.7549
  982SOL     OW 2764   3.673   2.541   1.787  0.2119  0.8360 -0.2024
  982SOL    HW1 2765   3.581   2.520   1.819  0.9430 -0.1730  1.3917
  982SOL    HW2 2766   3.726   2.581   1.862  0.9337  1.8845 -1.2392
  983SOL     OW 2767   0.728   2.176   3.301 -0.6526 -0.1053 -0.3197
  983SOL    HW1 2768   0.750   2.189   3.205 -2.7608 -0.2278 -0.8641
  983SOL    HW2 2769   0.719   2.078   3.321 -0.8603 -0.0589 -0.1705
  984SOL     OW 2770   0.143   1.490   1.173 -0.0579 -0.4307 -0.4227
  984SOL    HW1 2771   0.163   1.580   1.212 -2.5407  0.4911 -1.0879
  984SOL    HW2 2772   0.178   1.419   1.234  0.4873  0.9804  0.9803
  985SOL     OW 2773   2.150   0.589   0.658 -0.0789  0.3237 -0.6926
  985SOL    HW1 2774   2.115   0.579   0.751 -0.5172 -0.1028 -0.8983
  985SOL    HW2 2775   2.181   0.683   0.644  0.7235  0.1975  0.1292
  986SOL     OW 2776   0.961   2.500   0.831  0.2927  0.5064 -0.0631
  986SOL    HW1 2777   0.964   2.494   0.931 -0.1194  1.6796  0.0376
  986SOL    HW2 2778   0.972   2.596   0.803 -1.4086  0.4572 -1.0519
  987SOL     OW 2779   4.704   1.528   3.275 -0.6887  0.4802 -0.3404
  987SOL    HW1 2780   4.702   1.514   3.374 -2.1408 -0.0324 -0.4046
  987SOL    HW2 2781   4.632   1.472   3.233  1.6142 -1.4219 -1.9807
  988SOL     OW 2782   0.927   4.785   3.098 -0.1210  0.4377 -0.4341
  988SOL    HW1 2783   0.979   4.713   3.052 -1.0011 -0.6438  0.2284
  988SOL    HW2 2784   0.946   4.784   3.196 -0.4189  0.8768 -0.3641
  989SOL     OW 2785   2.031   4.848   2.734 -0.4157  0.7338  0.6660
  989SOL    HW1 2786   1.994   4.838   2.641 -2.1141  2.4725  1.1033
  989SOL    HW2 2787   2.113   4.792   2.742 -1.6513 -1.5066 -1.0629
  990SOL     OW 2788   0.132   0.778   4.320 -0.1023 -0.2157  0.1121
  990SOL    HW1 2789   0.218   0.828   4.332 -0.6173  1.3792 -2.2205
  990SOL    HW2 2790   0.144   0.709   4.249 -0.3224 -1.1900  0.9989
  991SOL     OW 2791   4.266   1.707   4.324 -0.8433 -0.2403 -0.6645
  991SOL    HW1 2792   4.285   1.721   4.422 -0.4036  0.8170 -0.8831
  991SOL    HW2 2793   4.292   1.614   4.298 -0.2550 -0.2961  0.0739
  992SOL     OW 2794   4.861   4.453   2.178 -0.4684  0.1982 -0.0833
  992SOL    HW1 2795   4.944   4.501   2.150 -1.1098  0.8130 -1.0063
  992SOL    HW2 2796   4.811   4.423   2.096 -1.7524  0.8931  0.4298
  993SOL     OW 2797   0.825   4.355   4.620  0.3568 -0.0803  0.3264
  993SOL    HW1 2798   0.883   4.435   4.601 -0.0555  0.2633  0.4879
  993SOL    HW2 2799   0.793   4.316   4.534 -1.6549  1.5769  0.2465
  994SOL     OW 2800   2.861   1.024   0.117 -0.5343 -0.4425 -0.8441
  994SOL    HW1 2801   2.762   1.016   0.102 -1.0242  0.1367  1.6528
  994SOL    HW2 2802   2.887   0.969   0.195  0.7097  1.1059 -0.1096
  995SOL     OW 2803   3.212   0.636   4.481  0.1704 -0.0133  0.0683
  995SOL    HW1 2804   3.245   0.697   4.408  0.9988 -0.0113  0.4305
  995SOL    HW2 2805   3.245   0.543   4.464 -0.9426 -0.3408 -0.3869
  996SOL     OW 2806   3.403   3.760   3.024 -0.0274 -0.2532  0.2077
  996SOL    HW1 2807   3.373   3.754   2.929 -1.3573 -1.9430  0.6839
  996SOL    HW2 2808   3.502   3.769   3.027 -0.1520  3.5413 -1.3857
  997SOL     OW 2809   1.358   1.438   0.935  0.0440 -0.6001 -0.0176
  997SOL    HW1 2810   1.364   1.339   0.921  0.7658 -0.5075 -0.3968
  997SOL    HW2 2811   1.354   1.485   0.846  2.6679 -0.1308  0.0376
  998SOL     OW 2812   1.412   3.924   3.014  0.2405 -0.3749  0.0389
  998SOL    HW1 2813   1.424   3.827   3.036  1.7117 -0.7316 -1.9656
  998SOL    HW2 2814   1.499   3.972   3.027  0.0710  0.2220 -0.8798
  999SOL     OW 2815   0.198   3.409   4.190  0.1621  0.0743  0.4760
  999SOL    HW1 2816   0.271   3.392   4.124  0.1374 -0.0332  0.4767
  999SOL    HW2 2817   0.143   3.326   4.201 -0.4314  0.3817 -0.1003
 1000SOL     OW 2818   3.440   2.696   2.699 -1.2147 -0.0907 -0.1471
 1000SOL    HW1 2819   3.369   2.639   2.739 -0.8209 -1.0525 -0.7776
 1000SOL    HW2 2820   3.524   2.686   2.752 -0.8728 -0.8711 -0.8068
 1001SOL     OW 2821   1.363   1.379   3.633  0.0621  0.2456 -1.0913
 1001SOL    HW1 2822   1.294   1.313   3.662 -0.5757  0.6736 -1.5993
 1001SOL    HW2 2823   1.432   1.389   3.705  1.2595 -2.3917 -1.7614
 1002SOL     OW 2824   0.165   2.450   1.339  0.2390 -0.6274 -0.1814
 1002SOL    HW1 2825   0.250   2.464   1.391  1.2876 -0.6334 -1.8118
 1002SOL    HW2 2826   0.144   2.533   1.288  1.1174 -1.6454 -2.3305
 1003SOL     OW 2827   3.980   1.922   0.846 -0.2378  0.1736  0.1818
 1003SOL    HW1 2828   3.976   1.836   0.794  1.5468  1.8004 -2.9249
 1003SOL    HW2 2829   3.902   1.927   0.908 -0.7387 -3.3622  0.0524
 1004SOL     OW 2830   4.050   1.352   3.267  0.4466  0.3781 -0.0196
 1004SOL    HW1 2831   4.055   1.336   3.365  1.0916  0.0679 -0.0961
 1004SOL    HW2 2832   4.115   1.292   3.220  0.5825  0.9536 -0.5875
 1005SOL     OW 2833   2.436   0.025   2.486  0.0966 -0.4836 -0.3738
 1005SOL    HW1 2834   2.527   0.065   2.472 -0.5483  0.8992 -0.7323
 1005SOL    HW2 2835   2.371   0.097   2.507 -1.1316 -1.3305 -1.1614
 1006SOL     OW 2836   0.429   1.121   4.496 -0.1192  0.1137  0.4425
 1006SOL    HW1 2837   0.466   1.194   4.438  2.6096 -0.1643  1.7153
 1006SOL    HW2 2838   0.376   1.162   4.570 -0.3954  0.6687 -0.0522
 1007SOL     OW 2839   0.283   0.181   2.760 -0.1174  0.0187  0.1452
 1007SOL    HW1 2840   0.381   0.168   2.744 -0.3710 -1.5715 -0.2547
 1007SOL    HW2 2841   0.237   0.092   2.761 -1.4908  0.7046  0.8266
 1008SOL     OW 2842   3.029   0.552   2.994  0.1249 -0.1435 -0.5043
 1008SOL    HW1 2843   3.080   0.632   3.027  0.0665 -0.2945 -0.0519
 1008SOL    HW2 2844   2.931   0.569   3.002 -0.0534 -2.0449  4.2111
 1009SOL     OW 2845   1.063   3.286   5.002  0.1878 -0.0670 -0.1330
 1009SOL    HW1 2846   1.140   3.346   5.021  1.5338 -2.0606  1.1400
 1009SOL    HW2 2847   1.087   3.224   4.927 -0.7090  0.1565 -0.6174
 1010SOL     OW 2848   1.377   0.753   4.096  0.8563  0.2350  0.1795
 1010SOL    HW1 2849   1.463   0.714   4.062  0.3511  0.4648 -1.4331
 1010SOL    HW2 2850   1.342   0.695   4.170  0.3570 -2.1790 -1.8341
 1011SOL     OW 2851   2.518   0.246   4.013 -0.1928  0.5869  0.0922
 1011SOL    HW1 2852   2.574   0.329   4.017  0.5652  0.0645  0.7817
 1011SOL    HW2 2853   2.421   0.270   4.018  0.0482  1.3676  1.9717
 1012SOL     OW 2854   2.580   0.038   3.862 -0.0590 -0.1759 -0.2545
 1012SOL    HW1 2855   2.569   0.120   3.919  1.2339 -0.3661  0.2981
 1012SOL    HW2 2856   2.672   0.035   3.824  0.0580 -1.5773  0.0696
 1013SOL     OW 2857   2.938   3.460   2.845 -0.0429 -0.1335  0.1943
 1013SOL    HW1 2858   2.975   3.414   2.765  0.5802  0.5761  0.0640
 1013SOL    HW2 2859   2.838   3.456   2.842 -0.0812  1.1148 -1.3715
 1014SOL     OW 2860   0.162   4.652   0.960 -0.7971  0.2192  0.2527
 1014SOL    HW1 2861   0.140   4.690   0.870  0.7336  1.5385  0.3826
 1014SOL    HW2 2862   0.218   4.570   0.948 -2.8814 -1.2491  0.0009
 1015SOL     OW 2863   3.068   2.806   1.483  0.3649 -0.0895 -0.0975
 1015SOL    HW1 2864   3.075   2.875   1.411 -0.8173 -0.8781 -1.0197
 1015SOL    HW2 2865   3.048   2.851   1.570 -0.3455  0.7465 -0.6718
 1016SOL     OW 2866   4.425   3.566   1.239  0.3245 -0.3131 -0.2408
 1016SOL    HW1 2867   4.378   3.653   1.256 -0.5972 -0.7137 -0.6820
 1016SOL    HW2 2868   4.405   3.535   1.146  1.9506 -0.2056 -0.6481
 1017SOL     OW 2869   3.328   1.058   3.910 -0.3720 -0.0593  0.3754
 1017SOL    HW1 2870   3.231   1.074   3.924 -0.3662  0.5724 -0.2378
 1017SOL    HW2 2871   3.381   1.129   3.955 -0.2533  0.3469 -0.3813
 1018SOL     OW 2872   2.752   1.797   1.114 -0.0888  0.2720 -0.4778
 1018SOL    HW1 2873   2.770   1.895   1.112  0.3376  0.1922 -0.4635
 1018SOL    HW2 2874   2.838   1.746   1.111 -0.2700 -0.0948  0.2818
 1019SOL     OW 2875   0.912   3.155   0.745 -0.0932 -0.1167 -0.2059
 1019SOL    HW1 2876   0.948   3.148   0.652 -3.6414 -0.6565 -1.6785
 1019SOL    HW2 2877   0.838   3.222   0.747 -1.4071 -1.5389  1.7484
 1020SOL     OW 2878   0.988   0.172   0.282  0.3037  0.3515  0.8595
 1020SOL    HW1 2879   1.064   0.231   0.258  0.5890 -0.4885 -0.4609
 1020SOL    HW2 2880   0.910   0.193   0.223  0.7048 -1.1387 -0.2716
 1021SOL     OW 2881   2.734   4.569   4.431 -0.4819  0.6987  0.3587
 1021SOL    HW1 2882   2.814   4.628   4.422 -1.1474  1.4675 -0.7644
 1021SOL    HW2 2883   2.691   4.584   4.520  0.6670  0.1884  1.0232
 1022SOL     OW 2884   4.736   3.182   4.029  0.1464  0.2499  0.6187
 1022SOL    HW1 2885   4.791   3.263   4.051 -0.3705  0.3681  1.4929
 1022SOL    HW2 2886   4.640   3.201   4.048 -0.3072  0.2528 -1.4767
 1023SOL     OW 2887   1.309   0.943   1.350  0.3499 -0.6666 -0.1802
 1023SOL    HW1 2888   1.217   0.950   1.310 -0.4459 -0.0090  1.6616
 1023SOL    HW2 2889   1.331   0.847   1.367  0.5250 -0.9285 -1.6861
 1024SOL     OW 2890   1.604   2.108   1.468  0.3663 -0.0721 -0.2269
 1024SOL    HW1 2891   1.587   2.035   1.535 -0.7413  0.2638 -0.1184
 1024SOL    HW2 2892   1.692   2.093   1.424  1.1350 -0.2847  1.3211
 1025SOL     OW 2893   3.284   3.293   1.022  0.6531  0.1220  0.4265
 1025SOL    HW1 2894   3.244   3.204   1.045  0.2934 -0.5928 -2.5283
 1025SOL    HW2 2895   3.321   3.290   0.929  0.4825  3.1211  0.1519
 1026SOL     OW 2896   3.422   0.198   0.646  0.4752 -0.0840  0.3184
 1026SOL    HW1 2897   3.465   0.249   0.571 -1.2606  1.1521  0.1060
 1026SOL    HW2 2898   3.420   0.100   0.623 -0.0754  0.2771 -1.3002
 1027SOL     OW 2899   4.483   2.044   2.470  0.4198  0.5530 -0.0927
 1027SOL    HW1 2900   4.528   2.131   2.452  0.4117  0.7755  0.9358
 1027SOL    HW2 2901   4.522   2.002   2.553  0.3035 -0.3394 -0.4724
 1028SOL     OW 2902   1.220   2.921   2.627 -0.4698  0.0036 -0.4448
 1028SOL    HW1 2903   1.267   2.952   2.710  0.8926 -1.7528 -0.4976
 1028SOL    HW2 2904   1.130   2.884   2.651 -1.2177  1.8782 -0.1349
 1029SOL     OW 2905   3.915   2.686   4.914  0.2013  0.1189 -0.1096
 1029SOL    HW1 2906   3.900   2.698   4.816  0.8270 -0.3543 -0.2683
 1029SOL    HW2 2907   3.841   2.731   4.964  0.9319  2.1391 -0.7324
 1030SOL     OW 2908   2.644   2.127   4.308 -0.1223  0.4305 -0.2004
 1030SOL    HW1 2909   2.643   2.156   4.213  1.5790 -2.8781 -1.4082
 1030SOL    HW2 2910   2.598   2.038   4.316  0.7036  0.1320  1.8423
 1031SOL     OW 2911   0.716   0.983   0.828  0.4018  0.1022  0.0565
 1031SOL    HW1 2912   0.715   1.034   0.742 -1.2194  0.1904  0.0988
 1031SOL    HW2 2913   0.729   1.047   0.904  1.0128  0.1241 -0.0630
 1032SOL     OW 2914   4.680   1.341   2.317  0.7346 -0.1345 -0.4342
 1032SOL    HW1 2915   4.623   1.364   2.396  0.1349 -1.0591 -0.5768
 1032SOL    HW2 2916   4.717   1.249   2.329  0.8911 -0.1603 -1.0845
 1033SOL     OW 2917   3.679   1.561   4.472 -0.6587  0.0087 -0.3519
 1033SOL    HW1 2918   3.593   1.524   4.509 -0.4227  0.3386  0.5606
 1033SOL    HW2 2919   3.720   1.495   4.410  0.0002 -1.5355  1.6068
 1034SOL     OW 2920   2.890   4.763   2.350 -0.0047 -0.0580 -0.4163
 1034SOL    HW1 2921   2.961   4.832   2.363 -0.1320  0.1515 -0.7935
 1034SOL    HW2 2922   2.849   4.740   2.438  1.5642 -1.3236  0.0223
 1035SOL     OW 2923   1.136   1.559   0.243 -0.7561 -0.4786 -0.1411
 1035SOL    HW1 2924   1.104   1.618   0.317 -0.1495  0.4373 -0.5902
 1035SOL    HW2 2925   1.105   1.465   0.260 -0.0659 -0.4278  1.6223
 1036SOL     OW 2926   3.106   2.844   4.807  0.0220 -0.2033 -0.2280
 1036SOL    HW1 2927   3.119   2.751   4.772 -0.8450 -0.3173 -0.2669
 1036SOL    HW2 2928   3.195   2.888   4.820  0.3793 -0.2099 -2.4057
 1037SOL     OW 2929   3.124   3.035   4.543  0.0011  0.2554 -0.1415
 1037SOL    HW1 2930   3.091   3.103   4.608  0.3244 -1.4130  1.8919
 1037SOL    HW2 2931   3.050   3.007   4.482 -0.5953  1.1253  0.1737
 1038SOL     OW 2932   4.964   3.764   3.622  0.4928 -0.0629 -0.0152
 1038SOL    HW1 2933   4.930   3.842   3.569 -0.9692 -0.4004  0.3960
 1038SOL    HW2 2934   5.019   3.705   3.563  1.6733  1.2911 -0.3211
 1039SOL     OW 2935   1.138   2.049   3.111 -0.3418  0.0519  0.1940
 1039SOL    HW1 2936   1.112   2.090   3.023 -0.6956  0.7108  0.5997
 1039SOL    HW2 2937   1.212   1.983   3.096 -1.2431 -0.7589 -0.7605
 1040SOL     OW 2938   1.102   2.265   1.050 -0.3778  0.2268  0.0594
 1040SOL    HW1 2939   1.096   2.264   0.950 -0.4853  0.4284  0.0636
 1040SOL    HW2 2940   1.161   2.190   1.081 -0.4216  0.1068 -0.1501
 1041SOL     OW 2941   2.092   1.575   0.905  0.2323 -0.4547 -0.4516
 1041SOL    HW1 2942   2.121   1.662   0.865 -2.0759  0.0681 -1.1250
 1041SOL    HW2 2943   2.065   1.590   1.001  0.5218 -0.5837 -0.3492
 1042SOL     OW 2944   0.262   1.386   4.216  0.3422  0.0840  0.0958
 1042SOL    HW1 2945   0.170   1.416   4.242 -0.2720  0.2579 -2.0981
 1042SOL    HW2 2946   0.256   1.303   4.160  1.5934 -0.3479  0.5538
 1043SOL     OW 2947   0.303   3.268   0.227  1.0636  0.0171  0.1714
 1043SOL    HW1 2948   0.339   3.175   0.214 -0.0575 -0.2382 -1.2442
 1043SOL    HW2 2949   0.204   3.267   0.219  1.0158  1.3062  0.4411
 1044SOL     OW 2950   4.413   2.452   2.384 -0.5816  0.2673 -0.1827
 1044SOL    HW1 2951   4.330   2.424   2.335 -0.8542 -0.6115  0.7459
 1044SOL    HW2 2952   4.400   2.542   2.425 -1.0899  0.1185 -0.0170
 1045SOL     OW 2953   2.181   0.529   0.309 -0.2633  0.0217  0.1944
 1045SOL    HW1 2954   2.158   0.458   0.243 -1.2504 -0.1331  0.6906
 1045SOL    HW2 2955   2.225   0.488   0.389 -0.0117  0.0881  0.0934
 1046SOL     OW 2956   0.355   2.256   3.916  0.3410 -0.3821  0.1848
 1046SOL    HW1 2957   0.384   2.350   3.937  2.3948 -1.0973  0.7270
 1046SOL    HW2 2958   0.314   2.215   3.997 -0.9887  0.1587 -0.1817
 1047SOL     OW 2959   1.372   2.317   0.321  0.5661 -0.5225 -0.2217
 1047SOL    HW1 2960   1.416   2.369   0.393  0.9431 -1.1513  0.0148
 1047SOL    HW2 2961   1.331   2.234   0.360  1.9169 -1.5556 -0.9039
 1048SOL     OW 2962   2.387   2.549   1.615  0.2253  0.1811  0.4661
 1048SOL    HW1 2963   2.382   2.599   1.528 -0.2090  0.0330  0.4028
 1048SOL    HW2 2964   2.344   2.459   1.604  2.0911 -0.7105  0.2322
 1049SOL     OW 2965   4.449   0.193   3.004 -0.1023  0.1422 -0.0370
 1049SOL    HW1 2966   4.410   0.273   2.959  0.4230 -0.4520 -1.5890
 1049SOL    HW2 2967   4.543   0.213   3.031  0.8757 -0.6890 -2.6081
 1050SOL     OW 2968   0.667   2.025   2.525  0.0971 -0.3857 -0.0327
 1050SOL    HW1 2969   0.661   2.000   2.428  1.1326 -0.5389 -0.0653
 1050SOL    HW2 2970   0.599   1.974   2.577 -0.2503 -0.5414 -0.6302
 1051SOL     OW 2971   0.211   0.023   1.312  0.0463  0.2767  0.0491
 1051SOL    HW1 2972   0.242   0.117   1.324 -1.2005  0.8836 -1.2417
 1051SOL    HW2 2973   0.162   0.014   1.225  0.2585 -1.6023  0.0741
 1052SOL     OW 2974   0.862   2.751   1.635  0.3127  0.1645  0.2200
 1052SOL    HW1 2975   0.845   2.790   1.726  1.3486  1.0763  0.0432
 1052SOL    HW2 2976   0.873   2.825   1.569 -0.1445 -0.4929 -0.6053
 1053SOL     OW 2977   2.436   4.742   3.576 -0.4687  0.1810 -0.1118
 1053SOL    HW1 2978   2.414   4.688   3.658 -0.4892  0.8016  0.2976
 1053SOL    HW2 2979   2.378   4.823   3.574  0.0011  0.5090 -0.3946
 1054SOL     OW 2980   1.855   3.494   2.425 -0.0372 -0.3449 -0.5136
 1054SOL    HW1 2981   1.894   3.405   2.404 -0.3344 -0.6451  0.1674
 1054SOL    HW2 2982   1.755   3.489   2.418 -0.1788 -0.5602  1.2439
 1055SOL     OW 2983   3.827   2.322   2.461  0.3859  0.6960  0.4701
 1055SOL    HW1 2984   3.761   2.353   2.530 -0.9816 -0.2805 -0.3388
 1055SOL    HW2 2985   3.819   2.378   2.379  1.2045  1.1341  0.6815
 1056SOL     OW 2986   0.439   2.495   3.272  0.3240  0.2728  0.0077
 1056SOL    HW1 2987   0.430   2.490   3.173 -1.3050 -0.6982  0.1739
 1056SOL    HW2 2988   0.351   2.474   3.315  1.3992 -1.0241  1.6919
 1057SOL     OW 2989   0.775   1.388   0.941 -0.3192  0.5459  0.1015
 1057SOL    HW1 2990   0.766   1.483   0.972 -0.7893  0.5805 -0.1348
 1057SOL    HW2 2991   0.734   1.379   0.850  1.2848  0.5131 -0.6582
 1058SOL     OW 2992   3.327   0.817   2.571  0.3694 -0.2212  0.4580
 1058SOL    HW1 2993   3.280   0.783   2.653  0.5991 -0.0826  0.6479
 1058SOL    HW2 2994   3.319   0.749   2.498 -0.4530 -0.0409  0.3601
 1059SOL     OW 2995   2.267   1.139   1.780 -0.3331 -0.3797  0.4776
 1059SOL    HW1 2996   2.213   1.223   1.771  1.5039  0.6887 -1.2806
 1059SOL    HW2 2997   2.247   1.078   1.704  1.1520  0.2114 -0.4366
 1060SOL     OW 2998   4.502   4.395   4.112 -0.4094  0.3903 -0.3511
 1060SOL    HW1 2999   4.576   4.369   4.050  0.2052  1.5041 -0.1105
 1060SOL    HW2 3000   4.415   4.389   4.063  0.0436  1.0364 -1.2841
 1061SOL     OW 3001   3.501   2.256   4.367 -0.0327  0.0946  0.3649
 1061SOL    HW1 3002   3.548   2.222   4.285  1.4281 -1.9435  1.9232
 1061SOL    HW2 3003   3.553   2.230   4.448 -2.4410  0.2462  2.0794
 1062SOL     OW 3004   0.894   3.553   3.312 -0.2565  0.2826 -0.3096
 1062SOL    HW1 3005   0.940   3.579   3.228  0.2707  0.0876 -0.0864
 1062SOL    HW2 3006   0.894   3.453   3.321  0.1005  0.3237  0.1501
 1063SOL     OW 3007   0.095   1.495   3.863 -0.4148 -0.0364 -0.1542
 1063SOL    HW1 3008   0.132   1.562   3.799  0.2424 -0.7321 -0.5202
 1063SOL    HW2 3009   0.151   1.412   3.861  0.6700  0.5345  2.5765
 1064SOL     OW 3010   1.853   2.664   1.194 -0.8818  0.3187  0.3602
 1064SOL    HW1 3011   1.798   2.746   1.213  0.7240  1.2175  1.4183
 1064SOL    HW2 3012   1.849   2.642   1.097 -3.0269  0.3729  0.3967
 1065SOL     OW 3013   3.196   0.174   2.557 -0.0936  0.1083  0.4057
 1065SOL    HW1 3014   3.231   0.151   2.467 -0.4821 -0.1117  0.3052
 1065SOL    HW2 3015   3.267   0.159   2.626  0.5313  1.2585  0.0300
 1066SOL     OW 3016   1.250   3.164   3.849  0.1975 -0.8498 -0.5706
 1066SOL    HW1 3017   1.203   3.075   3.853  0.3649 -1.0658 -2.5954
 1066SOL    HW2 3018   1.193   3.230   3.800  0.5431 -0.1365 -0.0244
 1067SOL     OW 3019   2.248   0.263   3.991  0.2311  0.4141  0.2112
 1067SOL    HW1 3020   2.173   0.318   3.955 -0.6928 -1.2258 -0.4840
 1067SOL    HW2 3021   2.214   0.203   4.064  0.4007 -1.5784 -1.2549
 1068SOL     OW 3022   1.359   0.725   0.670 -0.2012  0.3355 -0.2582
 1068SOL    HW1 3023   1.441   0.783   0.670  0.3316 -0.3907  0.2562
 1068SOL    HW2 3024   1.386   0.631   0.691 -0.8262 -0.4099 -2.4758
 1069SOL     OW 3025   2.870   0.185   1.319 -0.2386  0.2170  0.0600
 1069SOL    HW1 3026   2.921   0.129   1.254  1.5453  1.0856  0.6411
 1069SOL    HW2 3027   2.850   0.274   1.277 -0.7471  0.1043  0.0580
 1070SOL     OW 3028   2.751   3.881   0.072  0.0873 -0.3965  0.4566
 1070SOL    HW1 3029   2.737   3.899   0.169  0.0747  0.5034  0.3022
 1070SOL    HW2 3030   2.845   3.853   0.056 -0.0207 -0.9397  0.7816
 1071SOL     OW 3031   4.540   4.546   3.439  0.0812  0.0555 -0.6391
 1071SOL    HW1 3032   4.613   4.614   3.448 -1.6413  1.8470  0.4444
 1071SOL    HW2 3033   4.472   4.578   3.373 -1.1575 -0.2280  0.4650
 1072SOL     OW 3034   1.834   3.793   1.543 -0.0132 -0.0267 -0.4888
 1072SOL    HW1 3035   1.754   3.752   1.498 -0.1486  1.2704 -1.4818
 1072SOL    HW2 3036   1.813   3.887   1.569  0.4334 -0.3951  1.3721
 1073SOL     OW 3037   0.325   1.385   2.627  0.2750 -0.5970  0.7426
 1073SOL    HW1 3038   0.310   1.474   2.670  2.3375 -0.4421  1.2445
 1073SOL    HW2 3039   0.301   1.312   2.692  1.3133 -0.3718  1.3963
 1074SOL     OW 3040   2.116   3.331   0.407 -0.3401 -0.2235  0.0804
 1074SOL    HW1 3041   2.155   3.414   0.447  0.5826  1.0742 -3.1831
 1074SOL    HW2 3042   2.190   3.276   0.368 -0.9845 -2.4707  1.8166
 1075SOL     OW 3043   1.878   0.470   2.321  0.0078  0.6599  0.3367
 1075SOL    HW1 3044   1.902   0.440   2.229 -1.9466  0.0506 -0.0197
 1075SOL    HW2 3045   1.781   0.492   2.324  0.3808  2.3163  1.8436
 1076SOL     OW 3046   1.641   1.169   4.812  0.6501 -0.2364  0.5142
 1076SOL    HW1 3047   1.735   1.135   4.802  1.0528  1.1139 -0.5623
 1076SOL    HW2 3048   1.585   1.099   4.857  2.0281 -1.2855  0.6727
 1077SOL     OW 3049   4.364   3.919   4.562  0.3069  0.1333  0.2471
 1077SOL    HW1 3050   4.454   3.876   4.571  0.8778  1.2822  0.1712
 1077SOL    HW2 3051   4.343   3.970   4.645  0.6228  1.4855 -0.4639
 1078SOL     OW 3052   1.314   0.536   4.248 -0.3840 -0.0895 -0.3548
 1078SOL    HW1 3053   1.335   0.550   4.344  0.9074 -0.2504 -0.5944
 1078SOL    HW2 3054   1.351   0.448   4.218  0.3022  0.5021 -1.2961
 1079SOL     OW 3055   0.467   0.464   4.775 -0.4275 -0.3908 -0.0928
 1079SOL    HW1 3056   0.546   0.429   4.824  0.9705  1.2679 -1.0085
 1079SOL    HW2 3057   0.460   0.563   4.790 -2.6128 -0.5642  0.3071
 1080SOL     OW 3058   4.997   2.307   2.534  0.0618  0.0235  0.3798
 1080SOL    HW1 3059   4.945   2.371   2.479 -0.5842  0.2182  1.2047
 1080SOL    HW2 3060   4.936   2.261   2.599  0.8137 -0.1604  0.9711
 1081SOL     OW 3061   2.638   2.156   1.703 -0.3994  0.1975 -0.3003
 1081SOL    HW1 3062   2.701   2.201   1.640 -1.2088  0.5297 -0.8872
 1081SOL    HW2 3063   2.685   2.080   1.749  0.8975  1.4136  0.4720
 1082SOL     OW 3064   3.690   1.227   1.169  0.5598 -0.0554  0.0170
 1082SOL    HW1 3065   3.638   1.295   1.220  0.7238  1.2641 -1.4888
 1082SOL    HW2 3066   3.776   1.208   1.216 -0.0028 -0.1254  1.0494
 1083SOL     OW 3067   1.774   3.309   4.647 -0.2637  0.1324 -0.4362
 1083SOL    HW1 3068   1.785   3.288   4.550  2.2761  0.3280 -0.2573
 1083SOL    HW2 3069   1.821   3.239   4.701  1.4721  1.9244  0.4748
 1084SOL     OW 3070   0.421   2.319   2.170  0.2136 -0.0071 -0.2427
 1084SOL    HW1 3071   0.420   2.311   2.269  2.2188  4.2825  0.3461
 1084SOL    HW2 3072   0.330   2.340   2.136 -0.1109  0.5826  0.9644
 1085SOL     OW 3073   2.794   1.966   1.788 -0.6237  0.1037 -0.1454
 1085SOL    HW1 3074   2.731   1.888   1.782  0.8130 -1.1899  0.6506
 1085SOL    HW2 3075   2.866   1.956   1.721  0.5696 -0.2402  1.1382
 1086SOL     OW 3076   1.557   2.943   4.051  0.0213 -0.4582 -0.1428
 1086SOL    HW1 3077   1.505   3.028   4.062 -0.0061 -0.3283 -1.1351
 1086SOL    HW2 3078   1.495   2.871   4.020 -0.1191 -1.0766  1.4818
 1087SOL     OW 3079   4.213   1.970   4.892  0.5027  0.2681 -0.0639
 1087SOL    HW1 3080   4.271   1.941   4.816  0.4565 -1.3020  0.4660
 1087SOL    HW2 3081   4.162   2.052   4.865  0.7181 -0.0662 -1.6105
 1088SOL     OW 3082   0.728   0.956   2.320 -0.4414  0.2470 -0.0566
 1088SOL    HW1 3083   0.704   1.023   2.250  0.9272  1.2183  0.3701
 1088SOL    HW2 3084   0.661   0.882   2.318 -0.6159  0.3796 -2.1874
 1089SOL     OW 3085   0.073   0.717   0.434  0.2354  0.3125 -0.2856
 1089SOL    HW1 3086   0.071   0.816   0.446  0.3678  0.1766  1.0645
 1089SOL    HW2 3087   0.047   0.673   0.520 -1.0462 -0.8204 -1.2176
 1090SOL     OW 3088   3.148   3.169   0.406  0.2372 -0.1310 -0.5853
 1090SOL    HW1 3089   3.195   3.101   0.350  1.3855 -0.6643  0.9696
 1090SOL    HW2 3090   3.116   3.126   0.491 -0.7450  0.8323 -0.4510
 1091SOL     OW 3091   3.788   1.024   0.325 -0.2106  0.0593  0.4813
 1091SOL    HW1 3092   3.749   1.080   0.251  0.7231 -0.6865 -0.6123
 1091SOL    HW2 3093   3.858   1.078   0.373  0.3298  0.0144 -0.2415
 1092SOL     OW 3094   1.776   2.226   3.175 -0.3916 -0.8280  0.8991
 1092SOL    HW1 3095   1.691   2.181   3.203 -1.9482  1.7002  0.6370
 1092SOL    HW2 3096   1.754   2.318   3.142  2.6344  0.5090  2.3076
 1093SOL     OW 3097   1.932   1.420   0.751  0.2273 -0.1802 -0.3056
 1093SOL    HW1 3098   1.843   1.417   0.798  0.5656 -0.6739  0.3097
 1093SOL    HW2 3099   1.995   1.478   0.803  0.6772 -0.9221 -0.0013
 1094SOL     OW 3100   0.074   0.457   4.325 -0.0149  0.6677  0.2059
 1094SOL    HW1 3101  -0.009   0.403   4.307  1.6398 -1.9454  0.0027
 1094SOL    HW2 3102   0.098   0.509   4.243 -0.0398 -0.6212 -0.6549
 1095SOL     OW 3103   1.764   3.337   1.138 -0.2412 -0.4388 -0.4445
 1095SOL    HW1 3104   1.676   3.295   1.119  1.1513 -2.8600 -2.0434
 1095SOL    HW2 3105   1.778   3.341   1.237 -1.7300 -0.8575 -0.1963
 1096SOL     OW 3106   4.017   1.615   1.930 -0.6194  0.0157  0.2640
 1096SOL    HW1 3107   4.022   1.517   1.908 -2.1088  0.4220 -2.2202
 1096SOL    HW2 3108   4.109   1.654   1.928 -0.3043 -0.7324 -1.9631
 1097SOL     OW 3109   3.690   4.887   4.055  0.6899 -0.1014  0.3372
 1097SOL    HW1 3110   3.787   4.908   4.063  0.5338  0.1320  1.9030
 1097SOL    HW2 3111   3.670   4.855   3.962  1.9416  1.4313 -0.4993
 1098SOL     OW 3112   0.150   4.729   2.451  0.5115  0.5141  0.0087
 1098SOL    HW1 3113   0.104   4.807   2.493 -0.8622 -0.3433  0.1794
 1098SOL    HW2 3114   0.228   4.701   2.507 -1.3948 -0.7506  2.2331
 1099SOL     OW 3115   1.585   4.247   0.656 -0.7545  0.0969 -0.6176
 1099SOL    HW1 3116   1.607   4.273   0.750  0.5601  0.0960 -0.9109
 1099SOL    HW2 3117   1.641   4.300   0.593  0.0222 -1.5094 -1.3238
 1100SOL     OW 3118   1.624   1.846   2.828  0.1745  0.0216 -0.7370
 1100SOL    HW1 3119   1.618   1.877   2.733 -2.4793 -1.1434 -1.0298
 1100SOL    HW2 3120   1.559   1.771   2.842  2.7310 -1.9942  1.2139
 1101SOL     OW 3121   4.248   0.410   1.076  0.1569  0.0418  0.5369
 1101SOL    HW1 3122   4.299   0.371   0.999  0.4502  2.0886 -0.3623
 1101SOL    HW2 3123   4.263   0.354   1.157 -0.8567 -2.6941 -1.0377
 1102SOL     OW 3124   3.629   1.751   0.299 -0.2540  0.0770  0.1863
 1102SOL    HW1 3125   3.702   1.740   0.232 -0.1123  1.4450  0.0936
 1102SOL    HW2 3126   3.540   1.742   0.254 -0.1530  0.3584 -0.0670
 1103SOL     OW 3127   1.833   3.771   3.105  0.0248  0.0225 -0.1467
 1103SOL    HW1 3128   1.780   3.692   3.073  0.9781 -0.1734 -1.3118
 1103SOL    HW2 3129   1.785   3.855   3.079 -1.1188 -0.1330  1.3168
 1104SOL     OW 3130   2.317   0.055   2.933 -0.2550 -0.1049  0.2003
 1104SOL    HW1 3131   2.271   0.125   2.988  1.7450  0.4629  1.2557
 1104SOL    HW2 3132   2.288  -0.036   2.963 -0.8497  0.2401  0.6949
 1105SOL     OW 3133   0.354   0.940   4.319  0.5775 -0.2301  0.0095
 1105SOL    HW1 3134   0.374   1.009   4.389 -0.2982 -0.6600  0.7029
 1105SOL    HW2 3135   0.436   0.886   4.300  0.9574  0.2329  0.3129
 1106SOL     OW 3136   0.583   1.136   3.308 -0.2124 -0.0159 -0.0542
 1106SOL    HW1 3137   0.599   1.217   3.251 -0.4228  0.0472 -0.0234
 1106SOL    HW2 3138   0.514   1.078   3.265 -0.1363 -0.1290 -0.0241
 1107SOL     OW 3139   1.152   0.911   0.921  0.2706  0.4103  0.5656
 1107SOL    HW1 3140   1.111   0.990   0.967  1.0212  0.9481  0.3300
 1107SOL    HW2 3141   1.214   0.942   0.849 -0.7304 -0.4234 -0.6902
 1108SOL     OW 3142   0.893   3.487   4.902 -0.1817  0.6543 -0.1899
 1108SOL    HW1 3143   0.904   3.583   4.928 -1.3675  0.6902  0.2079
 1108SOL    HW2 3144   0.951   3.430   4.960 -1.8347  0.8496  1.7362
 1109SOL     OW 3145   3.867   0.115   2.953 -0.2479  0.0568  0.6371
 1109SOL    HW1 3146   3.911   0.033   2.917  4.4666  2.3862  0.2223
 1109SOL    HW2 3147   3.842   0.101   3.049  1.5444 -1.5351  0.9268
 1110SOL     OW 3148   2.384   1.200   0.078 -0.2176 -0.1385  0.2473
 1110SOL    HW1 3149   2.351   1.234  -0.011  0.1483 -0.7631 -0.1344
 1110SOL    HW2 3150   2.306   1.163   0.130 -0.5169  0.7042  0.4113
 1111SOL     OW 3151   4.341   1.489   2.260  0.0817 -0.1379 -0.0605
 1111SOL    HW1 3152   4.253   1.474   2.306 -0.2643 -1.6523 -1.1631
 1111SOL    HW2 3153   4.356   1.587   2.249 -1.3218  0.1541  0.4219
 1112SOL     OW 3154   0.848   0.156   1.886  0.3418  0.0778  0.2803
 1112SOL    HW1 3155   0.894   0.174   1.973  1.0703  0.1076 -0.1106
 1112SOL    HW2 3156   0.864   0.232   1.823 -0.3459  0.1453  0.1781
 1113SOL     OW 3157   2.826   2.412   4.258  0.0532 -0.2800  0.1227
 1113SOL    HW1 3158   2.742   2.430   4.207 -0.1520 -0.0853  0.5299
 1113SOL    HW2 3159   2.816   2.327   4.310  1.0329 -1.6872 -1.8284
 1114SOL     OW 3160   1.166   1.773   1.001 -0.4433 -0.2510  0.0777
 1114SOL    HW1 3161   1.226   1.714   1.056 -1.9910 -1.3487  0.6390
 1114SOL    HW2 3162   1.181   1.754   0.904  0.8976  0.2922  0.1585
 1115SOL     OW 3163   4.131   3.882   3.653 -0.6002 -0.4190  0.0292
 1115SOL    HW1 3164   4.141   3.923   3.562 -0.4228  1.0749  0.6983
 1115SOL    HW2 3165   4.038   3.896   3.686  0.1852  2.0824  1.4410
 1116SOL     OW 3166   2.838   2.788   3.355  0.4610 -0.4200 -0.7126
 1116SOL    HW1 3167   2.861   2.866   3.414  1.1582 -0.0308 -1.4934
 1116SOL    HW2 3168   2.778   2.725   3.406  2.0097 -0.6990  0.8449
 1117SOL     OW 3169   3.402   4.476   1.558  0.0393 -0.0757  0.0827
 1117SOL    HW1 3170   3.391   4.569   1.594  2.1201 -0.2401  1.2515
 1117SOL    HW2 3171   3.373   4.410   1.627  1.1086 -0.3359  0.2924
 1118SOL     OW 3172   2.036   0.020   1.290 -0.0846  0.0134  0.3904
 1118SOL    HW1 3173   1.996   0.108   1.318 -2.1635 -0.5486 -0.6237
 1118SOL    HW2 3174   1.968  -0.033   1.240  0.8158 -2.5942  1.7653
 1119SOL     OW 3175   2.430   2.128   3.358  0.3057  0.2804 -0.5535
 1119SOL    HW1 3176   2.483   2.077   3.426 -0.4223  2.6291  1.9783
 1119SOL    HW2 3177   2.339   2.147   3.394  0.7629  3.9379 -0.9210
 1120SOL     OW 3178   4.922   0.662   0.251  0.2685 -0.0724  0.3110
 1120SOL    HW1 3179   4.826   0.665   0.278  0.3210 -2.7653  1.0935
 1120SOL    HW2 3180   4.979   0.661   0.333  1.1133  2.6538 -0.1399
 1121SOL     OW 3181   2.569   4.986   3.197  0.2486 -0.1057 -0.0373
 1121SOL    HW1 3182   2.597   4.947   3.285 -0.0809 -0.4739 -0.0912
 1121SOL    HW2 3183   2.499   5.056   3.213  0.5467  0.1793  0.0294
 1122SOL     OW 3184   2.915   1.550   2.482 -0.4384  0.6088  0.1466
 1122SOL    HW1 3185   2.896   1.460   2.444 -0.5149  0.9955 -0.7617
 1122SOL    HW2 3186   2.837   1.611   2.466 -1.1418  0.3727  2.3361
 1123SOL     OW 3187   3.090   1.804   0.268 -0.1379  0.7067 -0.2874
 1123SOL    HW1 3188   3.042   1.761   0.191  0.4255 -0.9201  0.2315
 1123SOL    HW2 3189   3.032   1.875   0.307 -1.6369 -0.3850 -0.4391
 1124SOL     OW 3190   1.495   2.409   0.558 -0.3935  0.1724  0.1556
 1124SOL    HW1 3191   1.453   2.412   0.649  0.4605  4.2807  0.6265
 1124SOL    HW2 3192   1.591   2.382   0.567 -0.2862  0.6585  0.5323
 1125SOL     OW 3193   4.579   4.571   4.320 -0.2491 -0.0098 -0.0612
 1125SOL    HW1 3194   4.497   4.554   4.376 -0.3314 -0.2762 -0.2608
 1125SOL    HW2 3195   4.572   4.519   4.235  0.0078  0.1740 -0.1947
 1126SOL     OW 3196   1.856   0.906   0.843 -0.0600  0.3935 -0.8343
 1126SOL    HW1 3197   1.935   0.845   0.853 -0.5163 -0.2231 -0.9213
 1126SOL    HW2 3198   1.886   0.993   0.804  0.5881  0.2016 -0.7864
 1127SOL     OW 3199   1.530   1.497   4.514  0.0979  0.1522 -0.6225
 1127SOL    HW1 3200   1.438   1.461   4.499 -0.1364  0.7361 -0.6204
 1127SOL    HW2 3201   1.565   1.537   4.429  0.5559 -0.5212 -0.7560
 1128SOL     OW 3202   0.216   3.941   0.136 -0.2120  0.0216 -0.6169
 1128SOL    HW1 3203   0.185   3.974   0.047  1.1636  0.4268 -0.9689
 1128SOL    HW2 3204   0.178   3.850   0.152 -1.2556  0.3467 -1.1806
 1129SOL     OW 3205   4.396   3.090   2.374 -0.6060 -0.2454  0.7706
 1129SOL    HW1 3206   4.330   3.154   2.412  0.0878  0.5173  0.7215
 1129SOL    HW2 3207   4.462   3.064   2.444  0.6660  1.1490  0.1427
 1130SOL     OW 3208   2.514   4.625   4.069 -0.5138  0.3657 -0.0403
 1130SOL    HW1 3209   2.579   4.700   4.058 -1.0774  1.4206  2.9887
 1130SOL    HW2 3210   2.478   4.599   3.979  1.8514  1.7151 -1.4802
 1131SOL     OW 3211   4.992   4.370   2.741 -0.4788 -0.1676  0.1593
 1131SOL    HW1 3212   5.008   4.468   2.733  0.4393 -0.2797  0.4640
 1131SOL    HW2 3213   4.930   4.340   2.669 -0.4223  0.5587 -0.2031
 1132SOL     OW 3214   2.964   2.334   3.832  0.5418  0.1877 -0.9477
 1132SOL    HW1 3215   2.990   2.238   3.825 -0.6670 -0.0827 -2.2197
 1132SOL    HW2 3216   2.997   2.371   3.918 -0.4162 -1.8254  0.3655
 1133SOL     OW 3217   1.446   1.559   2.611 -0.3056 -0.5062  0.0789
 1133SOL    HW1 3218   1.359   1.517   2.635  0.6677 -1.4588  2.2214
 1133SOL    HW2 3219   1.520   1.493   2.625  0.7588  0.1519 -2.0609
 1134SOL     OW 3220   3.623   1.224   3.623  0.8214  0.2363 -0.0821
 1134SOL    HW1 3221   3.651   1.252   3.531  0.6009  2.3719  0.4443
 1134SOL    HW2 3222   3.523   1.218   3.626  0.9032 -2.3904 -0.6175
 1135SOL     OW 3223   3.738   3.721   4.723  0.1558 -0.4484  0.0185
 1135SOL    HW1 3224   3.835   3.700   4.712  0.2650  0.6778 -1.4900
 1135SOL    HW2 3225   3.728   3.803   4.780  0.0643 -0.7629  0.4593
 1136SOL     OW 3226   2.755   4.256   2.819  0.3566 -0.4275 -0.1679
 1136SOL    HW1 3227   2.681   4.309   2.779 -0.4808 -1.9750 -0.7440
 1136SOL    HW2 3228   2.810   4.315   2.878 -0.3930  1.1054 -0.9551
 1137SOL     OW 3229   1.358   3.171   2.104  0.1323 -0.3078 -0.2484
 1137SOL    HW1 3230   1.268   3.197   2.139  1.4144  2.2439  1.4903
 1137SOL    HW2 3231   1.383   3.082   2.142 -0.0439  0.7661  2.6512
 1138SOL     OW 3232   0.106   1.152   2.113 -0.2284  0.2635 -0.0246
 1138SOL    HW1 3233   0.155   1.239   2.107 -0.5118  0.5336  1.1645
 1138SOL    HW2 3234   0.008   1.170   2.129 -0.3802 -0.2710 -0.3398
 1139SOL     OW 3235   0.435   1.127   3.692  0.3297  0.5213 -0.1470
 1139SOL    HW1 3236   0.353   1.156   3.741  1.8581  0.2293  2.8213
 1139SOL    HW2 3237   0.510   1.190   3.711  1.2351 -0.1034 -1.4747
 1140SOL     OW 3238   2.586   0.872   1.526 -0.5098  0.4175 -0.0414
 1140SOL    HW1 3239   2.506   0.918   1.488  1.3939  3.1864 -1.0252
 1140SOL    HW2 3240   2.629   0.815   1.456  0.5505  2.0901 -0.8089
 1141SOL     OW 3241   4.146   0.082   2.797 -0.3079  0.3620 -0.3126
 1141SOL    HW1 3242   4.142   0.078   2.897 -0.5269 -1.1691 -0.3599
 1141SOL    HW2 3243   4.132   0.177   2.767  0.9193  1.0507  1.1385
 1142SOL     OW 3244   1.536   1.020   3.878 -0.4124 -0.3868  0.2551
 1142SOL    HW1 3245   1.525   0.928   3.840  0.9573 -1.6425  2.6780
 1142SOL    HW2 3246   1.493   1.024   3.968 -3.1429  2.3481 -0.9885
 1143SOL     OW 3247   4.433   2.221   0.041  0.2712 -0.3680 -0.1184
 1143SOL    HW1 3248   4.457   2.158  -0.033 -1.1543 -2.9854  1.4990
 1143SOL    HW2 3249   4.337   2.248   0.031  0.1242 -0.5871  0.6370
 1144SOL     OW 3250   2.765   0.567   2.979 -0.2286  0.1310 -0.2309
 1144SOL    HW1 3251   2.687   0.548   3.039  0.4607 -1.1177  0.3005
 1144SOL    HW2 3252   2.776   0.492   2.914 -0.6358  1.2184 -1.6008
 1145SOL     OW 3253   2.776   2.069   1.130 -0.0218 -0.2521 -0.0593
 1145SOL    HW1 3254   2.850   2.095   1.069 -1.1171  0.7247 -1.0039
 1145SOL    HW2 3255   2.745   2.149   1.181  0.4750 -0.9309  1.3778
 1146SOL     OW 3256   1.963   3.921   2.920  0.2257  0.5495 -0.6589
 1146SOL    HW1 3257   1.915   3.846   2.966 -0.4493  1.4751  0.1808
 1146SOL    HW2 3258   1.994   3.987   2.988 -0.4915  1.7904 -1.5084
 1147SOL     OW 3259   1.693   4.989   3.991 -0.2724  0.2622 -0.0024
 1147SOL    HW1 3260   1.676   4.893   4.010 -2.2557  0.6934  0.5974
 1147SOL    HW2 3261   1.623   5.045   4.035  1.2770  2.0544  0.3108
 1148SOL     OW 3262   1.157   1.570   4.087  0.6051  0.2073 -0.0195
 1148SOL    HW1 3263   1.112   1.629   4.154  1.2794 -0.0229  0.6525
 1148SOL    HW2 3264   1.125   1.476   4.099  1.4532 -0.0061  0.6476
 1149SOL     OW 3265   2.556   0.350   4.766  0.3951 -0.2810 -0.6760
 1149SOL    HW1 3266   2.473   0.389   4.726  0.4951  1.6427  0.8548
 1149SOL    HW2 3267   2.636   0.380   4.714  0.3539  0.2904 -0.4082
 1150SOL     OW 3268   1.056   1.531   1.684 -0.4193 -0.3348  0.0765
 1150SOL    HW1 3269   1.146   1.489   1.670 -0.9297 -1.2331 -0.6911
 1150SOL    HW2 3270   1.066   1.629   1.695  0.4960 -0.0903 -2.2997
 1151SOL     OW 3271   0.044   3.697   0.037 -0.0261  0.5228 -0.1774
 1151SOL    HW1 3272   0.014   3.768  -0.027  0.0099 -0.2429 -1.0632
 1151SOL    HW2 3273   0.015   3.722   0.130 -0.1985  1.5815 -0.4991
 1152SOL     OW 3274   1.593   4.762   4.138  0.5013  0.2289  0.1626
 1152SOL    HW1 3275   1.561   4.751   4.232 -0.8874  0.9946 -0.2004
 1152SOL    HW2 3276   1.649   4.683   4.112  0.6846 -0.1091  1.5336
 1153SOL     OW 3277   2.378   3.960   2.998  0.3480 -0.6067  0.4569
 1153SOL    HW1 3278   2.394   4.028   2.925 -0.3331  0.2902  1.1139
 1153SOL    HW2 3279   2.465   3.920   3.026  0.7731  0.0202  0.0693
 1154SOL     OW 3280   2.401   2.318   4.559 -0.0777 -0.0817 -0.3595
 1154SOL    HW1 3281   2.321   2.267   4.530 -1.8842  1.5259  1.4297
 1154SOL    HW2 3282   2.481   2.257   4.562 -1.6621 -2.2668 -0.2077
 1155SOL     OW 3283   0.057   4.521   0.300  0.4970 -0.4428 -0.3243
 1155SOL    HW1 3284   0.018   4.604   0.259  0.5726  0.0031  0.4793
 1155SOL    HW2 3285  -0.003   4.444   0.283  0.2293 -0.1452 -0.7483
 1156SOL     OW 3286   1.642   3.027   2.752 -0.2149 -0.3584  0.1402
 1156SOL    HW1 3287   1.721   2.981   2.791  0.0258  0.7698  1.0324
 1156SOL    HW2 3288   1.661   3.125   2.740 -1.0502 -0.2815 -0.7814
 1157SOL     OW 3289   2.728   1.064   2.032  0.0166  0.0281 -0.1420
 1157SOL    HW1 3290   2.656   1.004   2.066 -0.6157  0.6437 -0.3547
 1157SOL    HW2 3291   2.742   1.140   2.096  0.1801  0.1381 -0.3035
 1158SOL     OW 3292   2.745   1.593   3.239  0.5071  0.3261  0.5887
 1158SOL    HW1 3293   2.837   1.562   3.263  0.7729  1.0479  0.5194
 1158SOL    HW2 3294   2.736   1.596   3.139  0.3171  0.0049  0.5935
 1159SOL     OW 3295   1.837   3.524   2.810  0.8964  0.6335 -0.0133
 1159SOL    HW1 3296   1.935   3.545   2.809  0.6089  2.1669 -1.4457
 1159SOL    HW2 3297   1.797   3.551   2.722 -0.6424 -0.8823  0.1835
 1160SOL     OW 3298   2.003   3.833   1.074 -0.1919 -0.8024 -1.5382
 1160SOL    HW1 3299   2.025   3.759   1.010 -0.3156 -2.6296  0.4239
 1160SOL    HW2 3300   2.068   3.832   1.150 -1.8870 -0.8021  0.0019
 1161SOL     OW 3301   0.984   1.270   1.664 -0.2048  0.3106 -0.1257
 1161SOL    HW1 3302   1.063   1.217   1.696  0.3404  0.2846 -1.4272
 1161SOL    HW2 3303   0.989   1.363   1.701  0.4844  0.3268 -0.2370
 1162SOL     OW 3304   2.240   4.511   0.944  0.0307  0.2540 -0.7463
 1162SOL    HW1 3305   2.206   4.462   0.863  2.1951  0.2039 -1.7085
 1162SOL    HW2 3306   2.285   4.446   1.005 -0.7608  0.4448  0.0598
 1163SOL     OW 3307   2.923   3.283   1.094  0.1483 -0.0252 -0.1836
 1163SOL    HW1 3308   2.981   3.348   1.144  0.1788 -0.7588  0.7637
 1163SOL    HW2 3309   2.978   3.231   1.029  0.4924 -0.4239  0.4129
 1164SOL     OW 3310   2.496   2.712   0.238 -0.3896 -0.1217  0.4108
 1164SOL    HW1 3311   2.578   2.658   0.258 -0.4216 -0.4673 -0.3649
 1164SOL    HW2 3312   2.440   2.719   0.321  0.6131  0.4656  1.0574
 1165SOL     OW 3313   0.365   2.866   1.941  0.0015 -0.6976  0.2199
 1165SOL    HW1 3314   0.313   2.862   1.855  0.6494 -1.6463 -0.1547
 1165SOL    HW2 3315   0.387   2.773   1.970 -0.8467 -0.4311  1.8415
 1166SOL     OW 3316   0.574   0.218   0.293  0.6994 -0.0475 -0.3523
 1166SOL    HW1 3317   0.553   0.171   0.207 -0.1510  0.7118 -0.5758
 1166SOL    HW2 3318   0.603   0.151   0.361 -1.0214 -1.0051 -0.4929
 1167SOL     OW 3319   0.948   4.333   2.890  0.1601  0.3568  0.2175
 1167SOL    HW1 3320   0.861   4.316   2.844 -0.2231 -1.3373  1.5007
 1167SOL    HW2 3321   1.023   4.304   2.831 -0.1746  0.7718 -0.4269
 1168SOL     OW 3322   2.359   2.737   0.470 -0.2673 -0.0613  0.0437
 1168SOL    HW1 3323   2.269   2.710   0.502  0.3304  1.1714  3.1003
 1168SOL    HW2 3324   2.428   2.675   0.509  0.3761  0.3156 -0.4837
 1169SOL     OW 3325   3.466   3.514   3.175  0.5786  0.4648  0.3548
 1169SOL    HW1 3326   3.564   3.509   3.155  0.4607  0.6665 -0.2885
 1169SOL    HW2 3327   3.429   3.601   3.142 -0.0385 -0.0834 -0.4420
 1170SOL     OW 3328   3.908   3.779   0.271  0.2334 -0.7840  0.6857
 1170SOL    HW1 3329   3.926   3.767   0.174  1.5176 -0.2210  0.8381
 1170SOL    HW2 3330   3.961   3.856   0.306  0.8202 -1.7814  2.1059
 1171SOL     OW 3331   2.137   1.380   1.807  0.2345 -0.1928  0.1310
 1171SOL    HW1 3332   2.042   1.407   1.789  0.4739  0.1646 -0.6365
 1171SOL    HW2 3333   2.191   1.462   1.828  0.4886 -0.3414  0.0484
 1172SOL     OW 3334   3.299   1.561   1.811  0.0522 -0.2729  0.1537
 1172SOL    HW1 3335   3.356   1.578   1.892 -1.3846 -1.5723  1.4982
 1172SOL    HW2 3336   3.203   1.568   1.836 -0.4292 -0.8267 -1.4298
 1173SOL     OW 3337   3.499   1.743   2.975 -0.0360 -0.4276 -0.3139
 1173SOL    HW1 3338   3.521   1.712   3.068 -0.2815 -0.6350 -0.3219
 1173SOL    HW2 3339   3.549   1.688   2.909  1.2242  0.6308 -0.2760
 1174SOL     OW 3340   1.703   2.796   4.865 -0.5410  0.3302 -0.0776
 1174SOL    HW1 3341   1.622   2.786   4.923 -0.4705 -0.5177 -0.1144
 1174SOL    HW2 3342   1.785   2.797   4.922 -0.6448  3.3369  0.1670
 1175SOL     OW 3343   1.236   3.224   4.407  0.3567 -0.0613 -0.3857
 1175SOL    HW1 3344   1.217   3.289   4.481 -0.1234  0.5838 -1.0549
 1175SOL    HW2 3345   1.317   3.254   4.357 -0.3468  0.4974 -1.2110
 1176SOL     OW 3346   3.867   3.386   2.874  0.2732  0.1050 -0.1826
 1176SOL    HW1 3347   3.787   3.364   2.818 -0.0838  1.1847 -0.1221
 1176SOL    HW2 3348   3.919   3.303   2.891  0.0359 -0.3559 -1.5669
 1177SOL     OW 3349   3.535   2.725   3.444 -0.6741  0.4884 -0.0655
 1177SOL    HW1 3350   3.604   2.782   3.490  2.3209 -0.6380 -2.7278
 1177SOL    HW2 3351   3.447   2.772   3.445  0.6185  3.1415  1.5662
 1178SOL     OW 3352   2.111   4.452   3.589  0.2063 -0.1331  0.5621
 1178SOL    HW1 3353   2.084   4.531   3.643 -2.0125 -1.5575  1.6684
 1178SOL    HW2 3354   2.083   4.465   3.494  1.1501  0.9721  0.4117
 1179SOL     OW 3355   2.357   1.499   1.551 -0.1771  0.4458  0.3893
 1179SOL    HW1 3356   2.444   1.463   1.585  1.1646  0.6210 -2.5732
 1179SOL    HW2 3357   2.286   1.429   1.561  1.2207 -1.2053 -0.6482
 1180SOL     OW 3358   2.163   0.120   3.731  0.4542 -0.4108  0.4108
 1180SOL    HW1 3359   2.196   0.066   3.808 -0.8626 -1.0446  0.5648
 1180SOL    HW2 3360   2.119   0.203   3.766 -1.4623 -1.4039  0.4855
 1181SOL     OW 3361   0.074   0.866   3.637 -0.3358  0.0684  0.3906
 1181SOL    HW1 3362   0.052   0.955   3.676 -1.0821 -0.7293  1.8563
 1181SOL    HW2 3363   0.172   0.863   3.615 -0.4592  1.5215 -0.4756
 1182SOL     OW 3364   0.634   1.343   0.340 -0.0736  0.2119  0.6306
 1182SOL    HW1 3365   0.651   1.291   0.257 -2.2331  1.4776 -0.7082
 1182SOL    HW2 3366   0.570   1.293   0.398 -2.5966  1.4662 -0.9167
 1183SOL     OW 3367   2.417   0.387   3.576  0.0384  0.9071  0.4806
 1183SOL    HW1 3368   2.498   0.426   3.533  0.0385  1.3529  0.8753
 1183SOL    HW2 3369   2.399   0.434   3.663  0.3790 -0.3605  1.2589
 1184SOL     OW 3370   1.741   2.845   1.392 -0.0827 -0.3913 -0.0042
 1184SOL    HW1 3371   1.824   2.832   1.446 -0.4986  0.4289  0.8652
 1184SOL    HW2 3372   1.687   2.761   1.394  1.1398 -1.2528 -1.3502
 1185SOL     OW 3373   0.533   3.580   2.697  0.1725  0.1381  0.6475
 1185SOL    HW1 3374   0.546   3.654   2.763  0.5861 -0.2699  1.0328
 1185SOL    HW2 3375   0.586   3.500   2.726  1.5447  0.4116 -0.9317
 1186SOL     OW 3376   0.413   4.952   1.839  0.4231  0.1361 -0.2563
 1186SOL    HW1 3377   0.473   5.009   1.897  0.6834  1.1314 -1.4602
 1186SOL    HW2 3378   0.362   5.011   1.777  0.0839 -0.9088 -0.9869
 1187SOL     OW 3379   2.286   3.608   1.893 -0.1534 -0.3202 -0.2538
 1187SOL    HW1 3380   2.309   3.619   1.797 -1.3198  0.5914 -0.4487
 1187SOL    HW2 3381   2.318   3.688   1.944 -1.3217  0.1423 -0.2373
 1188SOL     OW 3382   3.516   3.665   1.259  0.0445  0.3958  0.4575
 1188SOL    HW1 3383   3.593   3.658   1.323  0.1165  1.4903  0.5056
 1188SOL    HW2 3384   3.440   3.710   1.305 -0.0306  0.8532 -0.1139
 1189SOL     OW 3385   0.215   1.441   2.005 -0.1443  0.0857 -0.4772
 1189SOL    HW1 3386   0.298   1.493   1.982  0.9311 -1.0991  0.5863
 1189SOL    HW2 3387   0.192   1.457   2.101 -0.7616 -0.1247 -0.5901
 1190SOL     OW 3388   0.301   3.125   2.811  0.1591 -0.1799  0.6545
 1190SOL    HW1 3389   0.237   3.167   2.876 -0.2648 -0.9790  0.7647
 1190SOL    HW2 3390   0.311   3.185   2.732 -0.3626  0.1837  0.8531
 1191SOL     OW 3391   0.465   3.524   3.784  0.5347  0.4141  0.2257
 1191SOL    HW1 3392   0.541   3.494   3.726 -0.3360 -1.2926 -0.1037
 1191SOL    HW2 3393   0.385   3.542   3.727 -0.0998 -0.5047  0.8036
 1192SOL     OW 3394   4.918   3.343   4.800  0.4550 -0.7067  0.4675
 1192SOL    HW1 3395   4.885   3.249   4.812  2.2684 -1.2523  1.6362
 1192SOL    HW2 3396   4.955   3.376   4.887  1.3083  0.4928 -0.3256
 1193SOL     OW 3397   4.694   3.766   0.092 -0.2169 -0.1921  0.4725
 1193SOL    HW1 3398   4.755   3.845   0.086 -0.7690  0.3149  1.3806
 1193SOL    HW2 3399   4.690   3.721   0.003  0.5722  0.4426  0.0973
 1194SOL     OW 3400   4.855   4.081   3.796 -0.7319 -0.5441  0.1354
 1194SOL    HW1 3401   4.796   4.112   3.721 -0.5817 -0.3001  0.1209
 1194SOL    HW2 3402   4.801   4.022   3.857 -0.8409 -0.7919 -0.1925
 1195SOL     OW 3403   0.823   2.300   0.238 -0.7755  0.3551 -1.1061
 1195SOL    HW1 3404   0.883   2.336   0.309  0.3356 -0.5267 -1.5606
 1195SOL    HW2 3405   0.794   2.374   0.177 -0.3945  0.8441 -0.6981
 1196SOL     OW 3406   1.339   1.604   1.134 -0.4730  0.2707 -0.3621
 1196SOL    HW1 3407   1.332   1.545   1.215 -0.2874  1.4540  0.5386
 1196SOL    HW2 3408   1.339   1.547   1.052 -0.1681 -0.9944  0.4799
 1197SOL     OW 3409   2.511   3.955   4.639 -0.0657  0.1755  0.0357
 1197SOL    HW1 3410   2.422   4.002   4.635 -0.4454 -0.5423 -0.1039
 1197SOL    HW2 3411   2.564   3.993   4.715 -0.0621  1.3339 -0.5229
 1198SOL     OW 3412   1.012   1.869   4.257  0.1010  0.9735 -0.3418
 1198SOL    HW1 3413   1.072   1.936   4.213  0.2217  2.1849  1.5702
 1198SOL    HW2 3414   0.935   1.849   4.196  1.0599  1.3824 -1.7437
 1199SOL     OW 3415   2.553   3.820   3.933 -0.3882 -0.3353  0.1038
 1199SOL    HW1 3416   2.523   3.726   3.947  0.0162 -0.6688 -1.2233
 1199SOL    HW2 3417   2.605   3.850   4.013 -1.4927 -0.8277  1.0388
 1200SOL     OW 3418   3.743   0.681   3.518  0.8342 -0.3649  0.4467
 1200SOL    HW1 3419   3.721   0.767   3.470 -0.9867 -0.5217  0.9186
 1200SOL    HW2 3420   3.744   0.698   3.617 -1.9390 -1.2803  0.7222
 1201SOL     OW 3421   2.785   0.739   1.130 -0.4930  0.4143 -0.6278
 1201SOL    HW1 3422   2.773   0.838   1.118  0.2012  0.4468 -1.1137
 1201SOL    HW2 3423   2.866   0.709   1.079  1.4216  0.1741  2.3501
 1202SOL     OW 3424   4.629   1.742   4.062 -0.0098  0.2052  0.0434
 1202SOL    HW1 3425   4.615   1.819   4.000  0.2752  0.0235 -0.2508
 1202SOL    HW2 3426   4.725   1.739   4.091 -0.2715  0.6393  0.9648
 1203SOL     OW 3427   1.862   0.601   3.642  0.1096 -0.0118 -0.1288
 1203SOL    HW1 3428   1.958   0.588   3.667 -0.0945  0.5056  0.9834
 1203SOL    HW2 3429   1.813   0.640   3.719 -0.9078  0.1530 -0.8444
 1204SOL     OW 3430   1.752   3.596   3.980 -0.6663  0.1023  0.1698
 1204SOL    HW1 3431   1.832   3.552   4.021 -1.3826 -0.6799  0.7585
 1204SOL    HW2 3432   1.763   3.601   3.881  0.6913  1.1994  0.3491
 1205SOL     OW 3433   2.323   1.209   0.979  0.1966  0.0363 -0.6204
 1205SOL    HW1 3434   2.256   1.179   1.047  2.0621 -0.6880  0.9902
 1205SOL    HW2 3435   2.351   1.130   0.924 -1.6289  0.6888 -2.6735
 1206SOL     OW 3436   2.119   2.229   4.188  0.1633  0.5697  0.1499
 1206SOL    HW1 3437   2.036   2.283   4.176  0.0955  0.4954  0.2844
 1206SOL    HW2 3438   2.116   2.149   4.128 -0.4067 -0.0767  1.0170
 1207SOL     OW 3439   3.169   4.299   2.011 -0.6211  0.1530  0.1604
 1207SOL    HW1 3440   3.085   4.319   1.961 -0.6458 -0.4768 -0.0552
 1207SOL    HW2 3441   3.160   4.211   2.058 -0.0373  0.0157  0.0242
 1208SOL     OW 3442   1.338   2.325   4.048  0.3811 -0.0034 -0.9110
 1208SOL    HW1 3443   1.290   2.351   4.132 -1.2830  0.2572 -1.8960
 1208SOL    HW2 3444   1.397   2.400   4.018  0.4158  0.1858 -0.3800
 1209SOL     OW 3445   3.232   2.385   3.013  0.0589 -0.2662  0.5236
 1209SOL    HW1 3446   3.202   2.380   3.109 -0.8092 -4.1382  0.2359
 1209SOL    HW2 3447   3.285   2.303   2.991  0.2449  0.5232 -2.3376
 1210SOL     OW 3448   4.503   2.567   0.341  0.6313  0.4931  0.3238
 1210SOL    HW1 3449   4.521   2.665   0.336 -0.5354  0.7874  1.4845
 1210SOL    HW2 3450   4.505   2.538   0.437  0.1350 -0.4540  0.0572
 1211SOL     OW 3451   0.246   1.464   4.643  0.5949  0.0174  0.4486
 1211SOL    HW1 3452   0.221   1.371   4.615 -0.6614  0.2091  0.8754
 1211SOL    HW2 3453   0.174   1.528   4.615  2.2374  1.1594 -1.4038
 1212SOL     OW 3454   2.675   0.758   2.813 -0.5012 -0.0991 -0.0754
 1212SOL    HW1 3455   2.616   0.826   2.858  2.9420  2.3326  1.2480
 1212SOL    HW2 3456   2.705   0.691   2.880  0.0850  0.0905 -0.1453
 1213SOL     OW 3457   1.309   0.954   2.459  0.4224  0.9743  0.0865
 1213SOL    HW1 3458   1.246   0.998   2.524 -0.5084  1.8663 -1.3444
 1213SOL    HW2 3459   1.400   0.995   2.468  0.2408  1.2763  0.6246
 1214SOL     OW 3460   2.841   1.633   0.199  0.0097 -0.3298  0.4530
 1214SOL    HW1 3461   2.788   1.549   0.210 -0.8918  0.2379  0.5326
 1214SOL    HW2 3462   2.779   1.712   0.200  0.9315  0.3982  1.2876
 1215SOL     OW 3463   2.260   1.161   3.120 -0.4020 -0.0209 -0.1350
 1215SOL    HW1 3464   2.336   1.106   3.156  0.3347  0.0126 -1.5428
 1215SOL    HW2 3465   2.297   1.233   3.060 -1.5128  0.4437 -0.2849
 1216SOL     OW 3466   4.917   3.711   3.066  0.0450  0.4833  0.5795
 1216SOL    HW1 3467   4.910   3.631   3.126 -1.9520 -0.1528 -0.3914
 1216SOL    HW2 3468   4.963   3.685   2.981 -1.2285  0.1086 -0.0334
 1217SOL     OW 3469   2.749   2.273   2.141 -0.0408 -0.2740 -0.4860
 1217SOL    HW1 3470   2.664   2.223   2.154  0.4902 -0.5733  2.7410
 1217SOL    HW2 3471   2.800   2.275   2.228  2.6558  0.9703 -1.9686
 1218SOL     OW 3472   4.383   3.222   4.760  0.1802 -0.0399  0.4711
 1218SOL    HW1 3473   4.422   3.244   4.670 -0.8178 -0.3919 -0.0556
 1218SOL    HW2 3474   4.417   3.288   4.827  1.4372 -0.1449 -0.0217
 1219SOL     OW 3475   1.269   1.990   0.684 -0.0823  0.6471  0.0941
 1219SOL    HW1 3476   1.367   1.979   0.704  0.1102 -1.7975 -1.6894
 1219SOL    HW2 3477   1.222   1.903   0.698 -1.8986  1.6041  0.2311
 1220SOL     OW 3478   2.597   2.708   1.201  0.0196  0.2504  0.0652
 1220SOL    HW1 3479   2.530   2.674   1.267  0.8135 -0.9440  0.2950
 1220SOL    HW2 3480   2.689   2.698   1.240  0.4727 -0.0535 -1.0529
 1221SOL     OW 3481   3.333   1.186   1.041 -0.3939  0.2780 -0.5669
 1221SOL    HW1 3482   3.255   1.217   1.095 -1.1394 -0.6229 -1.0766
 1221SOL    HW2 3483   3.385   1.119   1.093  1.0783  2.1244  0.4418
 1222SOL     OW 3484   4.215   3.789   0.593  0.2624 -0.0384 -0.2523
 1222SOL    HW1 3485   4.244   3.762   0.501  0.5353  0.4573 -0.3140
 1222SOL    HW2 3486   4.221   3.888   0.602 -0.5090 -0.0204  0.0550
 1223SOL     OW 3487   2.924   2.927   4.344 -0.2870  0.8252 -0.2877
 1223SOL    HW1 3488   2.926   2.830   4.369  0.9135  0.7030 -0.7729
 1223SOL    HW2 3489   2.947   2.937   4.247  1.2164  1.6833  0.1226
 1224SOL     OW 3490   0.267   2.954   2.403 -0.2352  0.0767  0.1806
 1224SOL    HW1 3491   0.334   3.006   2.455  0.4611  0.7312 -1.3006
 1224SOL    HW2 3492   0.182   3.005   2.397 -0.9146 -0.7393  2.0332
 1225SOL     OW 3493   2.497   4.227   1.764 -0.5998  0.0136  0.1455
 1225SOL    HW1 3494   2.455   4.317   1.751 -2.4517 -0.6398  1.1794
 1225SOL    HW2 3495   2.471   4.167   1.688  0.4501  0.2719 -0.4289
 1226SOL     OW 3496   0.006   3.994   0.810 -0.0911 -0.0462  0.6548
 1226SOL    HW1 3497   0.013   4.049   0.726 -1.1124 -0.5345  0.2369
 1226SOL    HW2 3498   0.098   3.974   0.843  0.3547 -0.2182 -0.6124
 1227SOL     OW 3499   3.086   1.809   4.650  0.0795  0.0712  0.4772
 1227SOL    HW1 3500   2.997   1.840   4.617  0.4702  0.7434  0.0104
 1227SOL    HW2 3501   3.126   1.879   4.709  1.4611  1.0572 -1.4796
 1228SOL     OW 3502   3.694   0.759   3.127 -0.0810  0.3199  0.2611
 1228SOL    HW1 3503   3.610   0.767   3.073 -0.2415  0.0665  0.4731
 1228SOL    HW2 3504   3.676   0.785   3.222  0.6272  2.5760 -0.1690
 1229SOL     OW 3505   1.089   3.656   2.151 -0.4911 -0.3261  0.1444
 1229SOL    HW1 3506   1.086   3.582   2.218 -2.8846 -0.8480 -0.4818
 1229SOL    HW2 3507   1.135   3.625   2.068 -0.8303 -0.8772  0.1594
 1230SOL     OW 3508   2.002   2.558   4.832  0.2875 -0.0893 -0.0143
 1230SOL    HW1 3509   2.071   2.493   4.864 -1.5931 -1.5954  1.2019
 1230SOL    HW2 3510   1.996   2.635   4.895  0.6438 -0.1093  0.0444
 1231SOL     OW 3511   4.804   2.713   0.877 -0.6702  0.1380  0.4687
 1231SOL    HW1 3512   4.841   2.784   0.818 -1.2382  1.0221  1.1406
 1231SOL    HW2 3513   4.858   2.629   0.867  1.2219  1.2237  1.0789
 1232SOL     OW 3514   1.666   1.303   1.180  0.1205  0.1870  0.4043
 1232SOL    HW1 3515   1.703   1.224   1.131 -0.8304  0.4476 -0.7878
 1232SOL    HW2 3516   1.582   1.276   1.227 -0.3064  0.5048 -0.1546
 1233SOL     OW 3517   4.716   2.290   4.805 -0.2113  0.0708  0.0875
 1233SOL    HW1 3518   4.792   2.258   4.749 -1.0127 -2.3262  0.2432
 1233SOL    HW2 3519   4.641   2.321   4.746 -0.1511 -0.1783 -0.1197
 1234SOL     OW 3520   2.944   0.184   4.905  0.3348  0.2053  0.3429
 1234SOL    HW1 3521   2.912   0.099   4.864  1.0390 -0.4863  1.1692
 1234SOL    HW2 3522   2.871   0.252   4.903  0.3224  0.1822 -1.9466
 1235SOL     OW 3523   2.992   2.918   4.075 -0.1550 -0.3617 -0.8339
 1235SOL    HW1 3524   3.054   2.843   4.052  0.8719 -0.4406  1.7635
 1235SOL    HW2 3525   3.032   3.005   4.046  1.6441 -0.3442  1.3996
 1236SOL     OW 3526   3.197   3.155   3.120  0.1350  0.2901  0.5901
 1236SOL    HW1 3527   3.127   3.226   3.129 -0.7328 -0.2942 -1.2178
 1236SOL    HW2 3528   3.199   3.121   3.026  3.7576  1.2234  0.1731
 1237SOL     OW 3529   4.957   1.958   0.083 -0.3103 -0.2595  0.0044
 1237SOL    HW1 3530   4.900   1.963   0.001  1.3522 -0.1602 -1.2138
 1237SOL    HW2 3531   5.037   2.017   0.071  1.2710 -2.1614  0.6136
 1238SOL     OW 3532   4.881   2.938   3.459 -0.3865 -0.1568 -0.1256
 1238SOL    HW1 3533   4.836   3.016   3.503  0.0996 -0.3084  0.6544
 1238SOL    HW2 3534   4.957   2.970   3.404  0.4273 -0.1468  0.9775
 1239SOL     OW 3535   3.107   0.111   0.409  0.5525  0.1667  0.8145
 1239SOL    HW1 3536   3.009   0.119   0.388  0.1853  2.9799  2.8626
 1239SOL    HW2 3537   3.160   0.164   0.343  0.5927 -0.4742  0.3293
 1240SOL     OW 3538   2.890   0.590   4.792  0.3171  0.0124  0.2865
 1240SOL    HW1 3539   2.899   0.682   4.830  1.9241 -0.2471  0.5803
 1240SOL    HW2 3540   2.978   0.543   4.797 -0.5895 -1.7291  0.6052
 1241SOL     OW 3541   3.758   0.465   4.883 -0.1297 -0.3965 -0.2110
 1241SOL    HW1 3542   3.714   0.444   4.971 -1.6501  0.0036 -0.8491
 1241SOL    HW2 3543   3.857   0.467   4.896 -0.2887 -0.9237  1.3705
 1242SOL     OW 3544   3.579   1.621   2.288 -0.0060  0.3977  0.2310
 1242SOL    HW1 3545   3.652   1.553   2.299  0.6163  1.0738  0.3390
 1242SOL    HW2 3546   3.616   1.712   2.303 -0.3531  0.9613 -2.0309
 1243SOL     OW 3547   0.399   3.495   2.002 -0.0731 -0.6281  0.0670
 1243SOL    HW1 3548   0.331   3.552   2.050 -0.3987 -0.4492 -0.5939
 1243SOL    HW2 3549   0.483   3.491   2.056 -0.0370  0.5024  0.1201
 1244SOL     OW 3550   4.486   0.374   4.839 -0.1432 -0.3722  0.6109
 1244SOL    HW1 3551   4.421   0.437   4.797  1.9524  0.7426 -1.1802
 1244SOL    HW2 3552   4.501   0.400   4.934 -1.9996 -0.4740  0.9795
 1245SOL     OW 3553   2.247   4.285   0.342  0.0955  0.5126  0.1926
 1245SOL    HW1 3554   2.326   4.279   0.280 -0.4310  1.6834 -0.6241
 1245SOL    HW2 3555   2.166   4.246   0.297  0.2969 -1.2901  1.2726
 1246SOL     OW 3556   4.010   0.652   4.478  0.1168  0.0592 -0.2533
 1246SOL    HW1 3557   4.058   0.570   4.509 -0.1301 -0.9132 -2.2997
 1246SOL    HW2 3558   4.071   0.709   4.423  0.2534  1.2493  1.0639
 1247SOL     OW 3559   2.026   0.370   3.884 -0.5575 -0.4202 -0.4884
 1247SOL    HW1 3560   1.927   0.358   3.893 -0.8538  1.8494 -0.2938
 1247SOL    HW2 3561   2.046   0.431   3.808  0.7524 -1.2179 -0.8163
 1248SOL     OW 3562   1.540   1.297   3.861  0.3162  0.0781 -0.4694
 1248SOL    HW1 3563   1.635   1.324   3.848  0.1149  0.4545 -1.2745
 1248SOL    HW2 3564   1.535   1.199   3.877  0.7836 -0.1016 -1.3206
 1249SOL     OW 3565   3.243   2.070   3.147 -0.0600 -0.0412  0.0812
 1249SOL    HW1 3566   3.340   2.093   3.142 -0.1863  0.3992 -0.5302
 1249SOL    HW2 3567   3.222   1.999   3.080  0.0124 -0.8253  0.8623
 1250SOL     OW 3568   1.069   2.306   4.198 -0.1155 -0.0961  0.8384
 1250SOL    HW1 3569   1.117   2.219   4.208  0.5333  0.1739  0.1915
 1250SOL    HW2 3570   1.082   2.361   4.280  2.5588  0.8610 -0.1049
 1251SOL     OW 3571   2.647   0.303   2.075  0.1278 -0.2476 -0.4217
 1251SOL    HW1 3572   2.640   0.215   2.122 -0.8566  0.3275  0.5634
 1251SOL    HW2 3573   2.585   0.304   1.997  0.5990 -0.6448 -0.8039
 1252SOL     OW 3574   3.927   3.446   3.876 -0.0422  0.4393 -0.1662
 1252SOL    HW1 3575   4.002   3.480   3.817  1.9259  0.0842  1.9788
 1252SOL    HW2 3576   3.905   3.352   3.851 -0.7064  0.9506 -1.6388
 1253SOL     OW 3577   4.205   4.613   0.763 -0.6896  0.6938  0.0423
 1253SOL    HW1 3578   4.189   4.595   0.861  0.2698  0.7203  0.2094
 1253SOL    HW2 3579   4.117   4.632   0.719 -1.0873  1.1870  0.9988
 1254SOL     OW 3580   1.980   3.131   1.456 -0.0346  0.4236 -0.3656
 1254SOL    HW1 3581   1.979   3.041   1.501 -0.3213  0.1321 -0.9518
 1254SOL    HW2 3582   2.063   3.180   1.483  0.9340 -0.6522 -1.2829
 1255SOL     OW 3583   0.227   1.972   2.963 -0.1257  0.3443 -0.1039
 1255SOL    HW1 3584   0.185   2.008   2.880  1.7614  0.6805 -0.9705
 1255SOL    HW2 3585   0.311   2.023   2.982  0.7459 -1.2974  0.6401
 1256SOL     OW 3586   4.734   4.754   4.665  0.0346  0.6412  0.0511
 1256SOL    HW1 3587   4.728   4.850   4.692  0.4756  0.4506  0.8571
 1256SOL    HW2 3588   4.770   4.747   4.572  0.1641  1.2496  0.0554
 1257SOL     OW 3589   3.473   3.359   1.748  0.8208  0.1833 -0.6471
 1257SOL    HW1 3590   3.436   3.298   1.678 -0.2046  1.2095 -1.0320
 1257SOL    HW2 3591   3.425   3.343   1.834  0.0719  0.8910 -0.9193
 1258SOL     OW 3592   4.012   1.566   4.289  0.1691  0.8688  0.2773
 1258SOL    HW1 3593   3.995   1.533   4.196  0.5678  0.7627  0.2376
 1258SOL    HW2 3594   4.086   1.634   4.287 -1.4119  2.6817  0.1882
 1259SOL     OW 3595   0.401   0.484   2.328  0.2213  0.1500  0.2069
 1259SOL    HW1 3596   0.460   0.565   2.320 -1.3530  1.3696  0.4507
 1259SOL    HW2 3597   0.308   0.509   2.303  0.0182 -2.0618 -1.4736
 1260SOL     OW 3598   2.467   2.489   2.075  0.5863  0.2434 -0.0066
 1260SOL    HW1 3599   2.464   2.461   1.980 -1.5356  1.8154 -0.4809
 1260SOL    HW2 3600   2.419   2.422   2.132  1.5293 -0.5028 -0.0593
 1261SOL     OW 3601   2.899   0.386   0.577 -0.1032  0.4526  0.3315
 1261SOL    HW1 3602   2.867   0.412   0.486  1.4938  0.9990 -0.1085
 1261SOL    HW2 3603   2.833   0.324   0.619 -1.2525  0.8222 -0.8715
 1262SOL     OW 3604   4.111   3.469   1.136  0.8089  0.2207  0.5078
 1262SOL    HW1 3605   4.087   3.508   1.225  0.7080  0.3520  0.4220
 1262SOL    HW2 3606   4.210   3.452   1.133  0.5787 -1.5238  1.3455
 1263SOL     OW 3607   2.662   4.206   0.487 -0.1824 -0.0036 -0.4050
 1263SOL    HW1 3608   2.756   4.173   0.478 -0.5355 -0.9145 -0.8631
 1263SOL    HW2 3609   2.603   4.159   0.422 -0.9373  0.6736 -0.2344
 1264SOL     OW 3610   1.746   1.008   1.344 -0.3418  0.5403  0.3728
 1264SOL    HW1 3611   1.735   1.075   1.271 -0.5148  1.5645  1.3124
 1264SOL    HW2 3612   1.728   0.917   1.309  0.5846  0.8939 -1.1139
 1265SOL     OW 3613   2.653   2.753   4.253  0.1806 -0.2119  0.1361
 1265SOL    HW1 3614   2.667   2.811   4.173 -0.6093  0.5603  0.5332
 1265SOL    HW2 3615   2.595   2.802   4.320 -0.1123 -1.2720  0.6815
 1266SOL     OW 3616   1.802   2.269   0.778  0.2498  0.2761 -0.0093
 1266SOL    HW1 3617   1.773   2.299   0.868  3.1706  1.8815  0.5068
 1266SOL    HW2 3618   1.818   2.170   0.780  0.1992  0.2764  1.1948
 1267SOL     OW 3619   4.872   4.653   0.526  0.2049 -0.5266  0.0067
 1267SOL    HW1 3620   4.872   4.658   0.626 -2.8373  1.1423  0.0501
 1267SOL    HW2 3621   4.945   4.712   0.490  0.5414 -0.1473  1.2286
 1268SOL     OW 3622   1.840   4.840   4.288 -0.6741  0.0108  0.5766
 1268SOL    HW1 3623   1.757   4.812   4.338 -0.1356 -2.5343  0.2144
 1268SOL    HW2 3624   1.913   4.773   4.305  0.0465 -0.0498 -2.2362
 1269SOL     OW 3625   0.809   2.393   2.433  0.0652 -0.7440  0.1421
 1269SOL    HW1 3626   0.781   2.409   2.338 -0.9020 -1.0801  0.3599
 1269SOL    HW2 3627   0.894   2.339   2.434 -0.3311 -1.4122 -0.5379
 1270SOL     OW 3628   2.329   3.845   5.012  0.6287  0.3590  0.0364
 1270SOL    HW1 3629   2.324   3.829   5.111 -0.5963  0.2660 -0.0166
 1270SOL    HW2 3630   2.411   3.803   4.975  0.3452 -0.9258  0.8007
 1271SOL     OW 3631   2.876   1.190   1.780  0.0258 -0.8229  0.0844
 1271SOL    HW1 3632   2.850   1.132   1.704 -2.0728 -1.0454  0.9166
 1271SOL    HW2 3633   2.826   1.163   1.862 -0.0438  1.3151  0.8135
 1272SOL     OW 3634   2.468   4.317   3.983  0.0307 -0.5375 -0.1793
 1272SOL    HW1 3635   2.545   4.362   4.028 -0.5517  0.4424 -0.1280
 1272SOL    HW2 3636   2.436   4.373   3.907 -2.4141  0.5532  1.5133
 1273SOL     OW 3637   4.070   3.676   3.310 -0.2788 -0.1167 -0.1242
 1273SOL    HW1 3638   4.068   3.773   3.333  0.6371 -0.5395  2.0392
 1273SOL    HW2 3639   4.007   3.626   3.370 -1.5188 -0.7711 -1.9000
 1274SOL     OW 3640   2.851   0.586   3.845  0.0395  0.6618  0.0104
 1274SOL    HW1 3641   2.866   0.593   3.747  3.0157  0.4715  0.3729
 1274SOL    HW2 3642   2.842   0.490   3.872 -0.1884  0.6841  0.0214
 1275SOL     OW 3643   2.469   2.902   4.381  0.5486 -0.1693  0.8435
 1275SOL    HW1 3644   2.519   2.980   4.342  0.3778 -0.5421 -0.1401
 1275SOL    HW2 3645   2.371   2.921   4.378  0.0856 -2.0200 -3.3484
 1276SOL     OW 3646   1.252   4.059   1.891  0.0912  0.4097  0.1369
 1276SOL    HW1 3647   1.294   4.100   1.972 -1.7495  0.7694  0.9677
 1276SOL    HW2 3648   1.278   4.111   1.810  1.5817  0.3313  0.5363
 1277SOL     OW 3649   3.817   0.183   0.734  0.4554 -0.2116  0.0224
 1277SOL    HW1 3650   3.844   0.268   0.689 -1.0928  1.0351  1.2955
 1277SOL    HW2 3651   3.718   0.185   0.751  0.4165 -2.2176  0.2233
 1278SOL     OW 3652   3.828   0.298   4.271 -0.8708 -0.1146  0.6484
 1278SOL    HW1 3653   3.895   0.239   4.227  0.2243  2.1564 -0.9634
 1278SOL    HW2 3654   3.848   0.304   4.368  1.6816  0.8678  0.1566
 1279SOL     OW 3655   0.041   2.407   4.383 -0.0753  0.6057 -0.4761
 1279SOL    HW1 3656   0.101   2.351   4.440 -2.3132 -0.7275  0.7302
 1279SOL    HW2 3657   0.057   2.504   4.403  1.4669  0.2763 -0.0166
 1280SOL     OW 3658   0.381   4.037   0.591 -0.0897  0.5826  0.2168
 1280SOL    HW1 3659   0.429   3.980   0.524  0.8864 -0.0449  1.4060
 1280SOL    HW2 3660   0.321   4.101   0.543 -0.5119 -0.8043 -1.1955
 1281SOL     OW 3661   2.825   3.407   3.902  0.0057  0.1548  0.1962
 1281SOL    HW1 3662   2.747   3.412   3.963  1.0465 -0.1034  1.6067
 1281SOL    HW2 3663   2.805   3.456   3.817 -1.7328 -0.0956  0.4456
 1282SOL     OW 3664   1.267   0.286   1.128  0.1843  0.0622  0.7623
 1282SOL    HW1 3665   1.170   0.292   1.152 -0.0816  1.9530 -0.5193
 1282SOL    HW2 3666   1.276   0.269   1.030  1.0827  1.4933  0.5508
 1283SOL     OW 3667   3.330   2.546   4.147 -0.6956 -0.0540  0.3121
 1283SOL    HW1 3668   3.361   2.458   4.109 -0.4587 -0.0358  0.4626
 1283SOL    HW2 3669   3.237   2.564   4.116 -0.2601  0.3102 -0.8860
 1284SOL     OW 3670   0.181   2.619   5.019 -0.2349 -0.5969 -0.3217
 1284SOL    HW1 3671   0.159   2.639   5.114  1.6628 -0.8474  0.2230
 1284SOL    HW2 3672   0.100   2.633   4.962 -1.4086 -0.4334  1.3095
 1285SOL     OW 3673   0.981   1.112   3.988  0.1538  0.0477 -0.6016
 1285SOL    HW1 3674   0.885   1.096   4.009 -0.0587  0.5026 -1.1935
 1285SOL    HW2 3675   1.003   1.069   3.900 -0.0100  1.5428 -1.4082
 1286SOL     OW 3676   4.607   0.785   0.923 -0.2364 -0.0413 -0.0652
 1286SOL    HW1 3677   4.534   0.740   0.975 -0.4156 -0.5158 -0.7174
 1286SOL    HW2 3678   4.661   0.843   0.985 -0.0347 -1.0994  0.7792
 1287SOL     OW 3679   0.909   0.576   3.253 -0.7584  0.1062  0.1296
 1287SOL    HW1 3680   0.828   0.622   3.216  0.1225  1.1666 -0.5239
 1287SOL    HW2 3681   0.914   0.483   3.217 -2.0759 -0.2340  0.7612
 1288SOL     OW 3682   0.783   2.481   2.992  0.3400 -0.3827 -0.2136
 1288SOL    HW1 3683   0.734   2.526   2.917 -0.7211  0.6624  1.0599
 1288SOL    HW2 3684   0.744   2.389   3.006 -1.1166  0.3080  0.5660
 1289SOL     OW 3685   1.884   2.163   3.428  0.5914  0.7668  0.0089
 1289SOL    HW1 3686   1.836   2.224   3.491 -0.7067  1.8225 -1.9001
 1289SOL    HW2 3687   1.872   2.196   3.335  0.1541 -2.2219 -1.0838
 1290SOL     OW 3688   0.905   0.653   1.572  0.2939 -0.1380 -0.2999
 1290SOL    HW1 3689   0.873   0.743   1.601  1.0036 -0.8361  3.0087
 1290SOL    HW2 3690   0.839   0.584   1.598  0.8718 -0.8265 -0.6109
 1291SOL     OW 3691   0.183   4.959   4.127  0.5030 -0.2229  0.4606
 1291SOL    HW1 3692   0.173   4.942   4.225  1.5541 -0.9266  0.4546
 1291SOL    HW2 3693   0.280   4.962   4.102  0.2555  0.0353 -0.5405
 1292SOL     OW 3694   3.868   0.302   4.530 -0.3677 -0.2802  1.0807
 1292SOL    HW1 3695   3.803   0.374   4.554 -0.2391 -0.2253  1.2674
 1292SOL    HW2 3696   3.960   0.340   4.525 -0.2878 -0.4445  1.2564
 1293SOL     OW 3697   1.838   0.763   1.782  0.2727 -0.5295  0.0331
 1293SOL    HW1 3698   1.778   0.827   1.734  0.7291  0.4787  0.7744
 1293SOL    HW2 3699   1.827   0.671   1.744  0.7645  0.2572 -2.1309
 1294SOL     OW 3700   2.671   1.927   2.251  0.3913  0.3819 -0.2238
 1294SOL    HW1 3701   2.626   1.867   2.186 -0.6978  0.2194  0.6375
 1294SOL    HW2 3702   2.765   1.945   2.222 -0.1286  0.4929 -1.9274
 1295SOL     OW 3703   3.818   1.306   2.020 -0.0250 -0.3173 -0.1669
 1295SOL    HW1 3704   3.721   1.325   2.006 -0.3521 -0.8393  1.2710
 1295SOL    HW2 3705   3.838   1.212   1.994 -0.3230 -0.8158  1.3306
 1296SOL     OW 3706   1.231   4.203   2.258 -0.5827  0.7283  0.0045
 1296SOL    HW1 3707   1.312   4.182   2.203  0.4451  1.6501  1.1385
 1296SOL    HW2 3708   1.165   4.251   2.201  0.4466  1.6327 -0.4648
 1297SOL     OW 3709   0.945   1.921   4.513 -0.0088  0.3838  0.0374
 1297SOL    HW1 3710   0.967   2.015   4.539 -1.2403  0.8909 -0.6933
 1297SOL    HW2 3711   0.996   1.897   4.430  1.2924 -0.0663  0.9267
 1298SOL     OW 3712   1.282   2.690   0.137 -0.2021 -0.6762  0.1564
 1298SOL    HW1 3713   1.212   2.751   0.098  1.4352  0.8657 -0.5040
 1298SOL    HW2 3714   1.249   2.596   0.135 -2.5063  0.0651  0.4664
 1299SOL     OW 3715   2.009   0.364   2.628  0.0053  0.0586 -0.3394
 1299SOL    HW1 3716   1.923   0.396   2.588 -0.6866  0.8880  1.6670
 1299SOL    HW2 3717   2.043   0.285   2.576 -2.2359 -0.6231 -0.8766
 1300SOL     OW 3718   4.323   1.733   1.534  0.1597  0.3914 -0.1366
 1300SOL    HW1 3719   4.373   1.693   1.457 -1.9136 -2.8320  0.0265
 1300SOL    HW2 3720   4.225   1.714   1.524 -0.1949 -0.0338  3.2291
 1301SOL     OW 3721   3.122   0.418   3.743 -0.5588 -0.2518  0.0111
 1301SOL    HW1 3722   3.096   0.499   3.691 -0.4045 -0.1320  0.1184
 1301SOL    HW2 3723   3.055   0.400   3.815  0.5891  1.1430  1.4959
 1302SOL     OW 3724   3.411   0.602   4.991  0.2381  0.4184 -0.0071
 1302SOL    HW1 3725   3.433   0.511   4.956  0.4298  0.3880  0.1920
 1302SOL    HW2 3726   3.341   0.595   5.062  0.9619  0.3240  0.7107
 1303SOL     OW 3727   3.875   4.644   3.458  0.5428 -0.1163 -0.4738
 1303SOL    HW1 3728   3.975   4.631   3.457  0.7282  1.0071  0.8886
 1303SOL    HW2 3729   3.835   4.593   3.534 -0.2738 -2.5030 -2.3902
 1304SOL     OW 3730   4.848   2.300   0.353  0.2650  0.0422 -0.3190
 1304SOL    HW1 3731   4.754   2.307   0.320 -0.3763 -0.2741  1.3019
 1304SOL    HW2 3732   4.911   2.335   0.284 -0.6242 -3.5141 -3.2542
 1305SOL     OW 3733   2.719   3.231   4.939  0.3152 -0.6801  0.4146
 1305SOL    HW1 3734   2.744   3.260   4.847 -0.1001 -2.1621 -0.1952
 1305SOL    HW2 3735   2.730   3.132   4.947  1.2718 -0.4680  2.2615
 1306SOL     OW 3736   3.586   2.408   1.320  0.2392  0.1866  0.0036
 1306SOL    HW1 3737   3.678   2.378   1.342 -0.0453  0.4453  1.6673
 1306SOL    HW2 3738   3.529   2.404   1.401 -1.2888 -0.1703 -1.0371
 1307SOL     OW 3739   4.442   2.529   1.104 -0.1194 -0.1640  0.1716
 1307SOL    HW1 3740   4.347   2.549   1.129 -0.1116  0.0846  0.0031
 1307SOL    HW2 3741   4.498   2.611   1.116  0.2131 -0.4864  0.9204
 1308SOL     OW 3742   1.742   0.350   1.079  0.0828  0.3850  0.4529
 1308SOL    HW1 3743   1.780   0.376   0.990 -2.2816 -0.7090 -0.9909
 1308SOL    HW2 3744   1.683   0.424   1.112  0.2412  0.4137  0.6726
 1309SOL     OW 3745   1.201   4.482   2.472 -0.6023 -0.4096  0.2640
 1309SOL    HW1 3746   1.248   4.401   2.509  0.2053 -0.2359 -0.3525
 1309SOL    HW2 3747   1.232   4.498   2.378 -1.0650  0.3788  0.2407
 1310SOL     OW 3748   3.042   3.255   5.007  0.3376 -0.3073  0.2022
 1310SOL    HW1 3749   2.956   3.300   4.983  1.0651  0.6870 -0.5701
 1310SOL    HW2 3750   3.021   3.167   5.051 -1.0842  0.2901  0.8019
 1311SOL     OW 3751   0.230   2.593   4.278 -0.2774  0.7155 -0.0285
 1311SOL    HW1 3752   0.307   2.655   4.265 -0.5424  1.4297  1.5578
 1311SOL    HW2 3753   0.264   2.499   4.284  0.4859  1.0195  0.6377
 1312SOL     OW 3754   0.032   2.747   4.397  0.2964 -0.0096  0.0612
 1312SOL    HW1 3755   0.104   2.701   4.344  1.7739  0.4613  1.5790
 1312SOL    HW2 3756   0.034   2.845   4.378 -1.1898 -0.1863 -1.2490
 1313SOL     OW 3757   3.094   2.551   0.536  0.0005 -0.2261 -0.0852
 1313SOL    HW1 3758   3.186   2.572   0.502  0.1148 -0.0696  0.3038
 1313SOL    HW2 3759   3.100   2.476   0.602 -0.3107 -1.0105 -0.9373
 1314SOL     OW 3760   0.377   4.441   0.565  0.1123  0.0525  0.2957
 1314SOL    HW1 3761   0.468   4.402   0.550  0.1078  0.3810 -0.7083
 1314SOL    HW2 3762   0.311   4.396   0.505 -0.4315 -0.3139  1.1542
 1315SOL     OW 3763   1.508   4.750   2.347  0.5764 -0.4223  0.2721
 1315SOL    HW1 3764   1.438   4.753   2.418  0.1964 -1.0854 -0.0681
 1315SOL    HW2 3765   1.530   4.655   2.324  0.6718 -0.2234 -0.5154
 1316SOL     OW 3766   0.792   0.533   2.332 -0.0038 -0.1736 -0.3151
 1316SOL    HW1 3767   0.799   0.471   2.253  0.9059 -0.4183 -0.0608
 1316SOL    HW2 3768   0.766   0.480   2.413 -2.3868  0.3032 -0.7038
 1317SOL     OW 3769   3.422   1.864   4.046 -0.4471 -0.0045  0.4629
 1317SOL    HW1 3770   3.501   1.807   4.025  2.0371  2.9522  1.0470
 1317SOL    HW2 3771   3.415   1.936   3.976 -0.6484  1.6251  2.0998
 1318SOL     OW 3772   1.223   0.918   0.210 -0.5431  0.5724 -0.0517
 1318SOL    HW1 3773   1.152   0.858   0.173  0.7571  0.2446 -2.1992
 1318SOL    HW2 3774   1.253   0.981   0.139 -0.7407  2.7580  1.6957
 1319SOL     OW 3775   0.705   3.775   1.178 -0.3068 -0.3012 -0.2400
 1319SOL    HW1 3776   0.637   3.747   1.110  0.1305 -0.1191 -0.7607
 1319SOL    HW2 3777   0.729   3.696   1.235 -1.9294 -0.0650  0.8271
 1320SOL     OW 3778   0.374   3.923   4.722 -0.7489  0.1121  0.1894
 1320SOL    HW1 3779   0.405   3.857   4.791 -0.4577 -0.8618 -0.8405
 1320SOL    HW2 3780   0.452   3.978   4.692 -0.7246  0.0568  0.1487
 1321SOL     OW 3781   0.564   2.403   5.019 -0.0731 -0.0641  0.2099
 1321SOL    HW1 3782   0.613   2.345   4.954  0.3615  1.2920 -0.7178
 1321SOL    HW2 3783   0.496   2.458   4.970 -1.2068 -0.5318  1.2156
 1322SOL     OW 3784   2.533   4.402   2.214  0.1582 -0.9376  0.5459
 1322SOL    HW1 3785   2.612   4.353   2.179 -0.3571 -1.2349 -0.1997
 1322SOL    HW2 3786   2.456   4.340   2.224 -0.1697 -0.5179  0.6692
 1323SOL     OW 3787   0.505   2.609   4.295 -0.0432 -0.5614  0.2661
 1323SOL    HW1 3788   0.495   2.588   4.392  1.3061 -0.7321  0.3874
 1323SOL    HW2 3789   0.600   2.633   4.276 -0.4713  0.2936 -0.8625
 1324SOL     OW 3790   1.395   1.680   3.267 -0.5666  0.1319 -0.0737
 1324SOL    HW1 3791   1.487   1.694   3.305 -0.1801 -0.4202 -0.7866
 1324SOL    HW2 3792   1.372   1.757   3.208  0.1710 -0.5403 -1.2863
 1325SOL     OW 3793   2.712   3.927   4.124 -0.2758  0.0861  0.6241
 1325SOL    HW1 3794   2.739   4.020   4.101 -2.2266  0.6656  0.4928
 1325SOL    HW2 3795   2.706   3.917   4.224 -1.4790  0.5692  0.6170
 1326SOL     OW 3796   0.189   1.653   0.016 -0.2304  0.4631  0.1478
 1326SOL    HW1 3797   0.219   1.561   0.039  1.5654  1.1676  0.8237
 1326SOL    HW2 3798   0.113   1.679   0.076 -0.4858 -0.4254  0.2182
 1327SOL     OW 3799   1.661   3.244   2.201  0.5795 -0.1009 -0.0403
 1327SOL    HW1 3800   1.626   3.232   2.294  0.4454 -0.2939 -0.1137
 1327SOL    HW2 3801   1.585   3.240   2.136  0.5321  1.1316 -0.0813
 1328SOL     OW 3802   3.644   2.483   4.860 -0.6206  0.3566 -0.6136
 1328SOL    HW1 3803   3.598   2.570   4.841 -0.1910  0.9571  0.9758
 1328SOL    HW2 3804   3.635   2.461   4.957  0.4859 -0.6644 -0.7197
 1329SOL     OW 3805   4.783   0.556   0.799 -0.4723  0.0126  0.0080
 1329SOL    HW1 3806   4.846   0.624   0.837  1.3352 -1.2611 -0.5380
 1329SOL    HW2 3807   4.722   0.524   0.871  0.3706  0.3781  0.9187
 1330SOL     OW 3808   1.704   1.960   4.626  0.5282  0.1456 -0.1409
 1330SOL    HW1 3809   1.727   1.965   4.529 -0.3073  1.2678 -0.3064
 1330SOL    HW2 3810   1.666   1.870   4.646  2.4295 -0.7655 -0.4294
 1331SOL     OW 3811   0.578   0.969   5.039 -0.2553 -0.0744 -0.1745
 1331SOL    HW1 3812   0.616   0.881   5.067 -1.7084 -0.8833 -0.6215
 1331SOL    HW2 3813   0.584   0.978   4.940 -0.6950  0.0267 -0.1944
 1332SOL     OW 3814   3.167   3.401   4.691 -0.3627 -0.0426 -0.5315
 1332SOL    HW1 3815   3.153   3.375   4.596 -0.5735 -2.5024  0.0966
 1332SOL    HW2 3816   3.255   3.364   4.723 -0.0624  1.1683  0.1089
 1333SOL     OW 3817   4.167   1.308   1.437 -0.3829 -0.1828  0.7182
 1333SOL    HW1 3818   4.087   1.276   1.487 -0.9990  0.5933  0.2513
 1333SOL    HW2 3819   4.138   1.348   1.350  0.3419  1.6901  1.2931
 1334SOL     OW 3820   1.994   3.529   4.085 -0.2017  0.0569  0.5097
 1334SOL    HW1 3821   2.019   3.436   4.111  0.6352  0.2477  0.4299
 1334SOL    HW2 3822   2.063   3.593   4.120  0.9359  0.3367 -2.0055
 1335SOL     OW 3823   1.254   4.896   4.189  0.5875 -0.6223  0.2541
 1335SOL    HW1 3824   1.292   4.853   4.270  1.7578 -1.2598 -0.5993
 1335SOL    HW2 3825   1.258   4.832   4.112 -2.0676 -0.6580  0.0407
 1336SOL     OW 3826   2.062   2.829   0.643 -0.2202  0.4802 -0.6101
 1336SOL    HW1 3827   2.152   2.805   0.679 -0.2440 -0.4814 -1.1775
 1336SOL    HW2 3828   1.997   2.836   0.718  0.4410  1.8074 -0.1188
 1337SOL     OW 3829   1.678   4.956   2.323  0.9675  0.9051 -0.2229
 1337SOL    HW1 3830   1.590   5.002   2.336 -0.4071 -1.2286 -1.4076
 1337SOL    HW2 3831   1.663   4.858   2.310  3.5141  0.5168 -0.7638
 1338SOL     OW 3832   0.306   4.800   1.394 -0.0944  0.2937  0.5915
 1338SOL    HW1 3833   0.360   4.775   1.313  0.8007 -1.6165  1.7208
 1338SOL    HW2 3834   0.253   4.882   1.374  1.5051  0.9514 -1.3309
 1339SOL     OW 3835   0.776   1.757   2.261  0.0084  0.1127 -0.1966
 1339SOL    HW1 3836   0.829   1.765   2.176  0.7712 -0.9364  0.1538
 1339SOL    HW2 3837   0.710   1.831   2.266  0.9699  1.0567 -0.9928
 1340SOL     OW 3838   2.254   4.536   1.907 -0.7527 -0.7851  0.2850
 1340SOL    HW1 3839   2.305   4.476   1.968 -2.5514 -2.5894  0.1121
 1340SOL    HW2 3840   2.156   4.517   1.915 -1.2108  0.5541 -1.4620
 1341SOL     OW 3841   2.007   0.848   1.142  0.3461  0.2235 -0.3802
 1341SOL    HW1 3842   1.915   0.814   1.163  0.3827  0.1765 -0.2995
 1341SOL    HW2 3843   2.073   0.809   1.205  0.1852  1.5816  0.6668
 1342SOL     OW 3844   0.424   2.640   2.056  0.5467  0.2068 -0.1538
 1342SOL    HW1 3845   0.410   2.635   2.155 -0.1508  0.4661 -0.2344
 1342SOL    HW2 3846   0.384   2.560   2.013  1.5457 -0.3016 -0.1608
 1343SOL     OW 3847   4.538   4.015   1.218  0.1761 -0.7054  0.3337
 1343SOL    HW1 3848   4.598   4.090   1.192 -0.1172 -1.0176 -1.3547
 1343SOL    HW2 3849   4.558   3.935   1.162 -1.4737 -0.9706  0.0570
 1344SOL     OW 3850   1.189   2.190   3.336 -0.0651 -0.2406  0.6087
 1344SOL    HW1 3851   1.187   2.142   3.249  0.4450  2.5698 -1.0879
 1344SOL    HW2 3852   1.278   2.180   3.379  1.6011  2.4421 -1.8438
 1345SOL     OW 3853   3.105   0.041   1.856 -0.4875 -0.2428  0.4309
 1345SOL    HW1 3854   3.016   0.030   1.899  0.1693  1.4453  2.3940
 1345SOL    HW2 3855   3.171  -0.021   1.900 -0.4171 -0.6182 -0.1890
 1346SOL     OW 3856   4.646   0.502   1.039 -0.3884  0.5260  0.3147
 1346SOL    HW1 3857   4.641   0.598   1.065 -0.3577  1.9576 -4.1098
 1346SOL    HW2 3858   4.554   0.463   1.038 -1.0738  1.9996 -2.1572
 1347SOL     OW 3859   0.513   1.948   4.047  0.0964 -0.6284  0.2174
 1347SOL    HW1 3860   0.592   2.008   4.063 -0.4872  0.6143 -1.3079
 1347SOL    HW2 3861   0.543   1.852   4.048  1.4198 -0.2251  0.7481
 1348SOL     OW 3862   3.686   3.722   0.416 -0.3442  0.2732  0.9007
 1348SOL    HW1 3863   3.782   3.746   0.400 -0.2413  0.5173  1.8479
 1348SOL    HW2 3864   3.656   3.759   0.504 -1.2640  0.0592  0.6884
 1349SOL     OW 3865   3.287   1.249   4.714 -0.1027  0.1781  0.1523
 1349SOL    HW1 3866   3.221   1.313   4.754  0.5757  0.8327  0.2517
 1349SOL    HW2 3867   3.330   1.195   4.787 -0.5119 -0.2350  0.0896
 1350SOL     OW 3868   0.882   1.741   1.995 -0.3056 -0.1413  0.6818
 1350SOL    HW1 3869   0.800   1.769   1.944  0.8899  0.4245 -1.0288
 1350SOL    HW2 3870   0.896   1.643   1.983 -0.5925 -0.1987  0.7927
 1351SOL     OW 3871   0.897   3.820   0.960  0.2769 -0.0868 -0.0811
 1351SOL    HW1 3872   0.976   3.873   0.991  0.2795 -0.6968  1.0114
 1351SOL    HW2 3873   0.869   3.757   1.032 -1.3839  0.2998 -0.3405
 1352SOL     OW 3874   2.817   0.993   4.268 -0.0623  0.1847  0.1431
 1352SOL    HW1 3875   2.869   0.983   4.352 -0.9680  0.4255  0.7512
 1352SOL    HW2 3876   2.863   0.945   4.193  0.3535 -0.6809  0.9436
 1353SOL     OW 3877   3.646   0.011   1.197  0.0903  0.5695 -0.3635
 1353SOL    HW1 3878   3.623   0.003   1.294 -0.6926  1.0115 -0.5045
 1353SOL    HW2 3879   3.708   0.088   1.184  2.2842 -1.0238  0.1054
 1354SOL     OW 3880   4.694   3.099   4.527 -0.3594 -0.6818  0.5983
 1354SOL    HW1 3881   4.597   3.078   4.524 -0.2580 -1.4778  1.9644
 1354SOL    HW2 3882   4.738   3.069   4.442 -1.4552  0.6924 -0.5078
 1355SOL     OW 3883   2.267   2.141   1.141  0.4019 -0.6647 -0.4805
 1355SOL    HW1 3884   2.360   2.116   1.113  1.1526  0.4175  0.9139
 1355SOL    HW2 3885   2.241   2.087   1.222  0.8104  0.7326  0.6271
 1356SOL     OW 3886   4.971   3.958   3.413 -0.3824  0.4839  0.3528
 1356SOL    HW1 3887   5.062   3.979   3.448 -0.1840  0.6270 -0.2494
 1356SOL    HW2 3888   4.974   3.950   3.314 -0.9737  0.2129  0.3545
 1357SOL     OW 3889   2.335   1.254   1.337  0.0756  0.2204 -0.1777
 1357SOL    HW1 3890   2.401   1.330   1.338  0.3316  0.0978 -2.4156
 1357SOL    HW2 3891   2.253   1.282   1.288 -0.4449 -0.4993  0.2579
 1358SOL     OW 3892   4.145   3.711   3.063 -0.5091 -0.1079  0.2629
 1358SOL    HW1 3893   4.080   3.683   2.993 -0.6019 -1.1455  0.7516
 1358SOL    HW2 3894   4.112   3.683   3.153 -0.0315  0.5451  0.6503
 1359SOL     OW 3895   0.902   1.649   4.449  0.6654 -0.5489 -0.1708
 1359SOL    HW1 3896   0.859   1.689   4.530  4.0352 -0.9406  2.0374
 1359SOL    HW2 3897   0.933   1.722   4.388 -2.5949 -0.2629 -1.6750
 1360SOL     OW 3898   1.353   4.703   4.012  0.0112  0.0129  0.3304
 1360SOL    HW1 3899   1.358   4.618   3.959  0.2692 -0.1261  0.5741
 1360SOL    HW2 3900   1.444   4.726   4.047 -0.1828  0.0220  0.8371
 1361SOL     OW 3901   4.456   1.152   3.315 -0.2530  0.3485  0.0841
 1361SOL    HW1 3902   4.451   1.080   3.246 -0.3628  0.6524 -0.2307
 1361SOL    HW2 3903   4.389   1.134   3.387 -0.5711  0.3491 -0.2069
 1362SOL     OW 3904   4.155   3.097   4.441 -0.3809 -0.1858 -0.1223
 1362SOL    HW1 3905   4.066   3.124   4.406 -1.1788  0.3046  2.1291
 1362SOL    HW2 3906   4.183   3.160   4.513  1.7723 -0.3768 -0.7175
 1363SOL     OW 3907   0.892   3.705   0.014 -0.0582  0.0049  0.6974
 1363SOL    HW1 3908   0.807   3.669   0.052 -0.0613 -0.2341  0.4669
 1363SOL    HW2 3909   0.969   3.681   0.074  0.4013 -3.1081 -0.9632
 1364SOL     OW 3910   3.625   1.567   3.382 -0.5040 -0.9154  0.0799
 1364SOL    HW1 3911   3.530   1.596   3.394 -0.7816 -1.5472 -0.5485
 1364SOL    HW2 3912   3.680   1.602   3.458 -0.9053  0.8808 -0.4013
 1365SOL     OW 3913   4.982   3.104   0.290  0.1527 -0.1130 -0.0590
 1365SOL    HW1 3914   4.939   3.014   0.285 -1.8575  0.8144 -0.2609
 1365SOL    HW2 3915   5.019   3.128   0.200 -1.4791  0.2436 -0.6779
 1366SOL     OW 3916   1.158   0.362   0.204 -0.6276  0.5691  0.5984
 1366SOL    HW1 3917   1.248   0.405   0.219 -0.3488  0.0667  0.3930
 1366SOL    HW2 3918   1.154   0.325   0.111 -0.0321 -1.7687  1.4388
 1367SOL     OW 3919   3.521   3.309   3.778 -0.1890  0.0586 -0.4459
 1367SOL    HW1 3920   3.587   3.377   3.812  0.2910 -0.2727 -0.7017
 1367SOL    HW2 3921   3.529   3.301   3.679 -1.4694  0.8941 -0.6417
 1368SOL     OW 3922   4.307   4.081   4.764 -0.2489 -0.4996 -0.2988
 1368SOL    HW1 3923   4.312   4.084   4.864  1.5817  0.5427 -0.3788
 1368SOL    HW2 3924   4.236   4.145   4.733  1.0351  1.2843  0.2791
 1369SOL     OW 3925   2.715   2.975   4.981 -0.0703  0.5363  0.0008
 1369SOL    HW1 3926   2.792   2.913   4.965  0.4407  0.9114  0.8804
 1369SOL    HW2 3927   2.640   2.954   4.919  0.2725 -0.6609 -0.0154
 1370SOL     OW 3928   1.957   0.047   0.238  0.1303  0.0530 -0.0113
 1370SOL    HW1 3929   2.016   0.003   0.305 -0.3381  0.8342  0.9416
 1370SOL    HW2 3930   1.933  -0.018   0.166 -0.5739 -1.2613  1.3577
 1371SOL     OW 3931   1.281   1.158   0.070  0.3416 -0.1587 -0.7834
 1371SOL    HW1 3932   1.379   1.159   0.049  0.2713 -1.6374 -1.2714
 1371SOL    HW2 3933   1.228   1.169  -0.014  0.0675  0.4096 -0.5472
 1372SOL     OW 3934   0.603   4.989   0.398 -0.3438 -0.4415  0.5382
 1372SOL    HW1 3935   0.625   4.957   0.305  1.0767  0.9485  0.3421
 1372SOL    HW2 3936   0.504   4.982   0.413 -0.3114 -3.1960 -0.0726
 1373SOL     OW 3937   1.844   2.608   0.381  0.3993 -0.1440  0.0460
 1373SOL    HW1 3938   1.757   2.658   0.380  1.1323  1.1616 -0.3456
 1373SOL    HW2 3939   1.835   2.529   0.442 -1.4843 -0.8586 -1.0709
 1374SOL     OW 3940   4.798   4.917   1.181  0.1865  0.0233 -0.7608
 1374SOL    HW1 3941   4.852   4.845   1.138  1.8475  0.0979  1.0138
 1374SOL    HW2 3942   4.834   5.006   1.154  1.5266  0.0664  0.9929
 1375SOL     OW 3943   4.125   4.326   0.710  0.3016 -0.5999  0.3842
 1375SOL    HW1 3944   4.033   4.341   0.676  0.5414 -1.6422 -0.8274
 1375SOL    HW2 3945   4.170   4.413   0.726  0.1354 -0.0203 -1.9593
 1376SOL     OW 3946   2.126   4.304   4.150 -0.3751 -0.4184  0.1880
 1376SOL    HW1 3947   2.125   4.224   4.089 -1.0843 -1.5294  1.5993
 1376SOL    HW2 3948   2.206   4.300   4.208 -0.0196  0.3191 -0.2383
 1377SOL     OW 3949   4.774   3.554   1.491  0.4035 -0.0049 -1.1373
 1377SOL    HW1 3950   4.705   3.482   1.481 -1.4244  1.6700 -1.0670
 1377SOL    HW2 3951   4.831   3.535   1.571 -1.4033 -0.3089  0.1216
 1378SOL     OW 3952   0.785   0.941   4.327 -0.2153 -0.4288  0.0819
 1378SOL    HW1 3953   0.705   0.883   4.318 -1.5810  1.0983  1.6338
 1378SOL    HW2 3954   0.774   1.023   4.269 -0.2587  0.2694  1.0581
 1379SOL     OW 3955   2.206   3.889   1.596  0.1327  0.1490 -0.3589
 1379SOL    HW1 3956   2.267   3.819   1.631 -0.1376 -0.3458 -0.8625
 1379SOL    HW2 3957   2.164   3.857   1.511 -1.0015  0.3853  0.0991
 1380SOL     OW 3958   3.290   4.487   4.936  0.4062 -0.1359  0.1918
 1380SOL    HW1 3959   3.277   4.559   5.005 -1.8386 -1.7319  1.5752
 1380SOL    HW2 3960   3.386   4.461   4.932  0.7738  0.7806  1.9312
 1381SOL     OW 3961   1.343   5.002   1.236 -0.1031 -0.1565 -0.0709
 1381SOL    HW1 3962   1.258   4.970   1.278 -0.5710  0.9137 -0.1635
 1381SOL    HW2 3963   1.327   5.091   1.194  1.1405  0.1923  0.1608
 1382SOL     OW 3964   1.356   4.412   0.560 -0.3778 -0.4495 -0.0842
 1382SOL    HW1 3965   1.366   4.414   0.461 -1.0362 -0.3824 -0.1535
 1382SOL    HW2 3966   1.373   4.320   0.594 -0.7905 -0.6215 -0.3349
 1383SOL     OW 3967   3.242   4.193   0.648 -0.1958 -0.1251 -0.7445
 1383SOL    HW1 3968   3.278   4.185   0.741 -0.2249 -0.8429 -0.7900
 1383SOL    HW2 3969   3.278   4.118   0.591  0.1997  0.5718 -1.4390
 1384SOL     OW 3970   3.133   4.343   3.787  0.6887  0.3046 -0.3800
 1384SOL    HW1 3971   3.122   4.301   3.877  0.4741 -2.5772 -1.6361
 1384SOL    HW2 3972   3.048   4.387   3.760  0.7537  1.1804  0.7967
 1385SOL     OW 3973   4.149   3.234   3.756 -0.4426  0.3009  0.0441
 1385SOL    HW1 3974   4.159   3.239   3.855  0.6607 -4.0941  0.3647
 1385SOL    HW2 3975   4.052   3.235   3.732 -1.2863 -4.6451  2.0140
 1386SOL     OW 3976   4.009   0.438   2.182  0.0114 -0.6284 -0.9085
 1386SOL    HW1 3977   4.028   0.372   2.255 -0.8536  0.1514  0.0521
 1386SOL    HW2 3978   3.931   0.494   2.207 -1.1668 -1.2020 -3.0238
 1387SOL     OW 3979   2.915   1.692   2.101 -0.1726  0.2413  0.2063
 1387SOL    HW1 3980   2.970   1.635   2.039  0.1043 -0.0258  0.6873
 1387SOL    HW2 3981   2.836   1.639   2.133  2.0373 -1.3318  3.6259
 1388SOL     OW 3982   4.199   2.972   2.746 -1.0096  0.2262  0.2416
 1388SOL    HW1 3983   4.285   2.988   2.794  0.0216  0.4877 -1.6015
 1388SOL    HW2 3984   4.179   2.874   2.745 -0.3454  0.0877  0.0758
 1389SOL     OW 3985   1.802   1.360   2.920 -0.3848 -0.1223  0.0950
 1389SOL    HW1 3986   1.791   1.261   2.906  0.5237 -0.0211 -1.6441
 1389SOL    HW2 3987   1.883   1.377   2.974 -0.0365 -0.3151 -0.3568
 1390SOL     OW 3988   1.786   4.092   2.803  0.6231  0.2101  0.0406
 1390SOL    HW1 3989   1.751   4.039   2.725 -2.8976  0.4841  1.2486
 1390SOL    HW2 3990   1.845   4.034   2.858  0.7009 -0.9471 -1.1979
 1391SOL     OW 3991   3.709   1.382   0.356  0.0233  0.0758 -0.1764
 1391SOL    HW1 3992   3.681   1.417   0.445 -1.6721 -0.8785 -0.2814
 1391SOL    HW2 3993   3.627   1.360   0.302  1.0174 -0.0983 -1.6653
 1392SOL     OW 3994   4.397   2.219   2.022  0.4733  0.2868  0.0070
 1392SOL    HW1 3995   4.324   2.260   1.967 -0.0087 -1.5373 -0.8001
 1392SOL    HW2 3996   4.357   2.162   2.094  1.1207  0.9159  0.8863
 1393SOL     OW 3997   1.151   4.143   0.974 -0.3203  0.0290 -0.2143
 1393SOL    HW1 3998   1.161   4.173   0.879  1.3401 -0.2174 -0.1517
 1393SOL    HW2 3999   1.197   4.056   0.986 -1.6560 -0.5949  0.5373
 1394SOL     OW 4000   1.760   2.311   3.987 -0.0155  0.2508  0.1273
 1394SOL    HW1 4001   1.736   2.406   4.003  0.5985  0.9278 -2.5337
 1394SOL    HW2 4002   1.684   2.265   3.941 -1.0427 -1.1427  2.9367
 1395SOL     OW 4003   3.740   0.854   1.579 -0.2537  0.3226 -0.0075
 1395SOL    HW1 4004   3.666   0.852   1.511 -0.3404  0.0932  0.0916
 1395SOL    HW2 4005   3.827   0.836   1.534 -0.5364 -1.8197  0.2236
 1396SOL     OW 4006   2.090   0.304   4.806  0.5196  0.2102 -0.6099
 1396SOL    HW1 4007   2.047   0.305   4.717  1.6237 -0.0583 -1.1731
 1396SOL    HW2 4008   2.021   0.291   4.877 -0.3218 -0.0417 -1.4582
 1397SOL     OW 4009   0.355   3.519   4.403 -0.1447 -0.0957 -0.1480
 1397SOL    HW1 4010   0.380   3.467   4.485 -0.4398  0.7525  0.5041
 1397SOL    HW2 4011   0.333   3.456   4.329  0.8134 -0.8791  0.2076
 1398SOL     OW 4012   4.717   3.102   0.880  0.0920  0.0793  0.3921
 1398SOL    HW1 4013   4.646   3.081   0.812  0.6884 -0.0403 -0.2098
 1398SOL    HW2 4014   4.737   3.020   0.933 -0.9327  0.3724  1.2622
 1399SOL     OW 4015   2.646   4.201   3.171 -0.6786  0.2897  0.2314
 1399SOL    HW1 4016   2.702   4.136   3.120  0.2137  0.7082  0.6596
 1399SOL    HW2 4017   2.593   4.153   3.241 -1.8095 -0.2699 -0.9715
 1400SOL     OW 4018   3.674   4.496   1.669  0.1001  0.3118 -0.1130
 1400SOL    HW1 4019   3.591   4.441   1.655  0.5302 -0.4448  0.2263
 1400SOL    HW2 4020   3.704   4.486   1.763  1.0344 -0.0879 -0.4385
 1401SOL     OW 4021   0.991   4.654   4.651  0.1117  0.4972 -0.0274
 1401SOL    HW1 4022   0.926   4.720   4.689 -0.4383 -0.6232  1.0619
 1401SOL    HW2 4023   1.060   4.631   4.719 -0.0140 -0.4354 -0.1896
 1402SOL     OW 4024   3.158   3.493   3.920  0.2111 -0.0130 -0.5270
 1402SOL    HW1 4025   3.171   3.405   3.874  1.8619 -0.2861  0.3587
 1402SOL    HW2 4026   3.111   3.556   3.859 -0.5590 -1.3448 -1.3657
 1403SOL     OW 4027   0.618   3.608   3.373  0.9471  0.3070 -0.1528
 1403SOL    HW1 4028   0.611   3.705   3.350 -0.2874  0.0954 -0.7559
 1403SOL    HW2 4029   0.715   3.581   3.373  1.4370  1.8683  1.5835
 1404SOL     OW 4030   1.714   1.445   0.936  0.0784 -0.1623  0.2293
 1404SOL    HW1 4031   1.631   1.412   0.890  0.2262 -0.5003  0.2042
 1404SOL    HW2 4032   1.723   1.400   1.025 -2.0791  2.9828  2.2234
 1405SOL     OW 4033   2.926   2.860   0.480 -0.3454 -0.0039  0.0380
 1405SOL    HW1 4034   2.847   2.920   0.473 -0.1383  0.3282  0.5335
 1405SOL    HW2 4035   2.924   2.794   0.405 -1.4172 -0.3831  0.3804
 1406SOL     OW 4036   0.178   3.851   2.817  0.1652 -0.9197 -0.0293
 1406SOL    HW1 4037   0.233   3.919   2.768 -1.0641  0.0378 -0.1460
 1406SOL    HW2 4038   0.088   3.890   2.837 -0.3805 -2.3409  0.3923
 1407SOL     OW 4039   0.376   0.135   4.417 -0.1025 -0.7055  0.4495
 1407SOL    HW1 4040   0.357   0.211   4.356  0.8524 -1.1864 -0.4811
 1407SOL    HW2 4041   0.313   0.060   4.398 -0.2473 -0.5998  0.5170
 1408SOL     OW 4042   2.395   1.683   3.442 -0.0826  0.1022 -0.3211
 1408SOL    HW1 4043   2.342   1.686   3.527  0.6971  1.0900  0.1574
 1408SOL    HW2 4044   2.336   1.707   3.366 -0.8038 -0.8341 -0.0727
 1409SOL     OW 4045   0.344   0.139   0.613 -0.2708 -0.2985 -0.2162
 1409SOL    HW1 4046   0.440   0.141   0.641 -0.3759  0.9290  0.1362
 1409SOL    HW2 4047   0.336   0.175   0.520 -0.4188 -0.1699 -0.1536
 1410SOL     OW 4048   2.688   4.650   0.962  0.4610  0.3671  0.3326
 1410SOL    HW1 4049   2.672   4.636   1.060  0.0424 -1.0717  0.0708
 1410SOL    HW2 4050   2.610   4.698   0.922  0.3848  0.4579  0.5872
 1411SOL     OW 4051   4.645   1.533   4.691  0.2471 -0.1013  0.3541
 1411SOL    HW1 4052   4.617   1.618   4.736  0.4965  1.2104 -1.8196
 1411SOL    HW2 4053   4.739   1.512   4.716  0.9771  1.5548 -0.7836
 1412SOL     OW 4054   0.160   1.440   0.594 -0.0373  0.4003 -0.2951
 1412SOL    HW1 4055   0.104   1.523   0.590  1.5090  1.5512  0.8292
 1412SOL    HW2 4056   0.211   1.430   0.509 -0.1857  0.6298 -0.4121
 1413SOL     OW 4057   3.575   2.752   2.472  0.0230 -0.1280 -0.6764
 1413SOL    HW1 4058   3.611   2.845   2.478  1.7079 -0.7901  0.0711
 1413SOL    HW2 4059   3.527   2.729   2.557 -1.0808  0.2988 -1.1632
 1414SOL     OW 4060   2.946   1.947   2.011  0.2890 -0.7322 -0.4894
 1414SOL    HW1 4061   2.885   1.968   1.934  2.3081 -0.6550 -2.1707
 1414SOL    HW2 4062   2.948   1.849   2.027 -2.0013 -0.5757  1.1549
 1415SOL     OW 4063   1.245   4.658   0.445  0.1926 -0.2628 -0.2563
 1415SOL    HW1 4064   1.158   4.660   0.396  1.0669  1.8267 -1.8834
 1415SOL    HW2 4065   1.247   4.579   0.506 -3.2656  0.1952  0.6848
 1416SOL     OW 4066   1.884   4.389   0.720  0.2386 -0.0526  0.2857
 1416SOL    HW1 4067   1.849   4.406   0.628  0.0151 -0.2932  0.3251
 1416SOL    HW2 4068   1.984   4.390   0.719  0.2355 -0.0413  0.0423
 1417SOL     OW 4069   0.074   0.477   1.819  0.3791  0.0923 -0.0278
 1417SOL    HW1 4070   0.075   0.448   1.914  2.3166 -1.1132 -0.3452
 1417SOL    HW2 4071   0.011   0.553   1.807  0.0845  0.2485  2.1956
 1418SOL     OW 4072   3.837   2.150   1.055 -0.3436 -0.5147 -0.3489
 1418SOL    HW1 4073   3.780   2.183   0.979 -2.1579 -0.5110  0.9434
 1418SOL    HW2 4074   3.884   2.228   1.097  0.9490 -0.5578 -1.6214
 1419SOL     OW 4075   3.621   4.801   2.168 -0.2414  0.1827  0.2965
 1419SOL    HW1 4076   3.538   4.851   2.196 -0.4401 -0.2634  0.5053
 1419SOL    HW2 4077   3.595   4.720   2.116  0.1254  0.9549 -1.1206
 1420SOL     OW 4078   0.627   0.162   0.625 -0.3752  0.2277 -0.2938
 1420SOL    HW1 4079   0.618   0.260   0.644 -0.4331  0.1941 -0.1476
 1420SOL    HW2 4080   0.617   0.110   0.710 -0.4809  0.0862 -0.3911
 1421SOL     OW 4081   2.120   1.074   4.567  0.0484 -0.5633 -0.1401
 1421SOL    HW1 4082   2.156   1.007   4.503 -0.0381 -1.0719  0.3375
 1421SOL    HW2 4083   2.058   1.137   4.519 -0.1167 -1.0153 -0.5222
 1422SOL     OW 4084   0.440   3.257   4.994 -0.2695 -0.0902 -0.1213
 1422SOL    HW1 4085   0.428   3.274   5.092 -2.7938 -0.6605 -0.2640
 1422SOL    HW2 4086   0.483   3.337   4.952  1.9317 -0.2712  1.5626
 1423SOL     OW 4087   1.623   4.807   1.903  0.4032  0.3218 -0.4056
 1423SOL    HW1 4088   1.544   4.825   1.961 -0.2597  1.4110 -1.6085
 1423SOL    HW2 4089   1.594   4.763   1.818  1.0227  1.0631 -1.0221
 1424SOL     OW 4090   5.027   4.410   4.831 -1.1949  0.3986  0.0161
 1424SOL    HW1 4091   5.055   4.425   4.736 -2.2079 -1.7656 -0.6769
 1424SOL    HW2 4092   4.934   4.443   4.844 -1.7717 -1.0402 -0.3031
 1425SOL     OW 4093   0.547   1.601   4.971 -0.1253 -0.1694 -0.2096
 1425SOL    HW1 4094   0.482   1.550   4.916  0.8152  0.0972 -1.6115
 1425SOL    HW2 4095   0.561   1.692   4.931 -2.1423  1.5032  2.4770
 1426SOL     OW 4096   3.021   4.003   1.223 -0.2403  0.0050  0.5446
 1426SOL    HW1 4097   3.047   3.999   1.320  0.3123  0.4370  0.4234
 1426SOL    HW2 4098   3.083   4.065   1.175 -0.5914 -0.1072 -0.0634
 1427SOL     OW 4099   0.533   2.835   3.070  0.1315  0.1475  0.0970
 1427SOL    HW1 4100   0.581   2.837   3.158  1.3605  1.1899 -0.5544
 1427SOL    HW2 4101   0.550   2.920   3.021  0.3660 -0.8288 -1.6074
 1428SOL     OW 4102   3.537   0.243   2.362  0.1207  1.1339 -0.6675
 1428SOL    HW1 4103   3.634   0.218   2.364 -0.0634  0.3506 -1.2567
 1428SOL    HW2 4104   3.509   0.262   2.268 -0.4886  0.5400 -0.6171
 1429SOL     OW 4105   2.208   3.378   1.769  0.2200  0.2283  0.0540
 1429SOL    HW1 4106   2.237   3.455   1.825  0.1361 -0.0370  0.4619
 1429SOL    HW2 4107   2.149   3.317   1.822 -1.7230  1.1276 -0.9670
 1430SOL     OW 4108   4.744   4.168   2.307  0.0338  0.2320 -0.2923
 1430SOL    HW1 4109   4.743   4.226   2.226 -1.2842  0.0785 -0.4069
 1430SOL    HW2 4110   4.650   4.150   2.337  0.4339 -1.2567  0.1575
 1431SOL     OW 4111   2.524   0.222   2.841  0.6422 -0.1083  0.5038
 1431SOL    HW1 4112   2.439   0.171   2.851  0.4208  0.1341 -0.1036
 1431SOL    HW2 4113   2.527   0.295   2.909  0.5120 -0.3120  0.7308
 1432SOL     OW 4114   1.776   1.778   2.141  0.4208 -0.4049 -0.2808
 1432SOL    HW1 4115   1.743   1.869   2.118  0.3382 -0.4710 -0.4295
 1432SOL    HW2 4116   1.840   1.783   2.218  0.2109 -0.2530 -0.1165
 1433SOL     OW 4117   3.554   0.317   4.161 -0.2497 -0.0798  0.2317
 1433SOL    HW1 4118   3.513   0.235   4.119 -0.5277  0.8996 -1.5071
 1433SOL    HW2 4119   3.649   0.299   4.184 -0.6213 -1.2446  0.9722
 1434SOL     OW 4120   0.628   3.197   3.861 -0.2325  0.7075  0.0693
 1434SOL    HW1 4121   0.663   3.107   3.886  2.4482  1.5890 -0.1981
 1434SOL    HW2 4122   0.591   3.194   3.768  0.7002  0.0508 -0.2985
 1435SOL     OW 4123   1.054   3.462   2.837 -0.0401 -0.4454  0.0484
 1435SOL    HW1 4124   1.087   3.369   2.823  0.6728 -0.3326  0.8842
 1435SOL    HW2 4125   1.018   3.499   2.750  3.7798  0.0972 -1.4960
 1436SOL     OW 4126   0.704   1.184   0.113  0.4150  0.6369  0.4565
 1436SOL    HW1 4127   0.656   1.118   0.055  1.8585 -0.4289  0.4075
 1436SOL    HW2 4128   0.780   1.224   0.061  1.6133 -0.1866  1.5162
 1437SOL     OW 4129   0.623   3.420   3.589 -0.3582 -0.3704  0.4388
 1437SOL    HW1 4130   0.617   3.508   3.541 -2.3814 -1.2358 -1.0830
 1437SOL    HW2 4131   0.677   3.356   3.535 -1.6360 -0.9908 -0.1557
 1438SOL     OW 4132   0.366   2.815   0.070  0.6941  0.6342  0.3560
 1438SOL    HW1 4133   0.411   2.869  -0.002  0.0364 -0.6711 -1.0894
 1438SOL    HW2 4134   0.308   2.745   0.028 -0.5367  0.4953  2.1797
 1439SOL     OW 4135   3.110   4.385   3.408 -0.0615  0.3104 -0.1484
 1439SOL    HW1 4136   3.149   4.293   3.408 -2.4891 -0.8279 -2.2410
 1439SOL    HW2 4137   3.054   4.398   3.490 -0.2889 -0.3338 -0.2038
 1440SOL     OW 4138   0.884   0.778   0.940 -0.1810  0.6416 -0.2127
 1440SOL    HW1 4139   0.811   0.841   0.913  0.4823  2.0057  0.9981
 1440SOL    HW2 4140   0.972   0.817   0.913  0.4094  1.3747  2.4566
 1441SOL     OW 4141   3.116   0.527   1.571 -0.0798 -0.1820 -0.2304
 1441SOL    HW1 4142   3.075   0.437   1.580  0.3445 -0.2873  0.7708
 1441SOL    HW2 4143   3.137   0.563   1.662  0.3919  0.6319 -0.6528
 1442SOL     OW 4144   4.586   3.872   3.172 -0.0488 -0.3293 -0.1482
 1442SOL    HW1 4145   4.645   3.890   3.251  0.9916  0.2265 -1.0392
 1442SOL    HW2 4146   4.599   3.943   3.103 -0.7138 -0.9808 -0.9709
 1443SOL     OW 4147   5.025   3.510   4.323 -0.2732  0.0007 -0.7273
 1443SOL    HW1 4148   5.033   3.509   4.422  0.3819 -2.3268 -0.7379
 1443SOL    HW2 4149   5.113   3.482   4.282 -1.0211 -0.7596 -1.8758
 1444SOL     OW 4150   0.294   2.046   1.903  0.4941  0.6549 -0.2881
 1444SOL    HW1 4151   0.254   2.072   1.991 -0.2415  3.0162 -1.2289
 1444SOL    HW2 4152   0.223   2.047   1.833  1.2644 -0.1592 -1.0983
 1445SOL     OW 4153   0.561   3.468   4.887  0.0959  0.2350  0.5854
 1445SOL    HW1 4154   0.654   3.452   4.922 -0.1327  0.1344  1.1701
 1445SOL    HW2 4155   0.556   3.561   4.850  1.2826 -0.7786 -2.3589
 1446SOL     OW 4156   1.400   2.705   4.589  0.0030 -0.0450 -0.4193
 1446SOL    HW1 4157   1.477   2.645   4.567  0.8201  0.7564  0.1912
 1446SOL    HW2 4158   1.390   2.712   4.688 -0.2597  0.6051 -0.4904
 1447SOL     OW 4159   1.477   2.613   3.238  0.0555  0.0172 -0.1544
 1447SOL    HW1 4160   1.417   2.692   3.224 -0.5840 -0.2177  1.1392
 1447SOL    HW2 4161   1.457   2.571   3.326  0.2981 -1.6869 -0.8803
 1448SOL     OW 4162   2.159   4.090   1.753 -0.4249 -0.4785 -0.1418
 1448SOL    HW1 4163   2.093   4.145   1.702  0.4423  0.6216 -0.1162
 1448SOL    HW2 4164   2.179   4.005   1.703 -0.1583  0.2337 -1.2684
 1449SOL     OW 4165   2.876   2.345   0.864  0.2887 -0.9595  0.6756
 1449SOL    HW1 4166   2.875   2.433   0.910 -2.3028 -0.3523 -0.3547
 1449SOL    HW2 4167   2.828   2.352   0.776  0.8474 -3.1720  0.1098
 1450SOL     OW 4168   0.641   3.864   0.176 -0.1530  0.1269  0.5188
 1450SOL    HW1 4169   0.668   3.774   0.142  0.0541 -0.1050  1.2828
 1450SOL    HW2 4170   0.722   3.923   0.183 -0.4088  0.6609 -0.7987
 1451SOL     OW 4171   0.545   4.482   4.009  0.3892  0.3307 -0.3706
 1451SOL    HW1 4172   0.488   4.437   3.941  0.8565 -0.7004 -0.1091
 1451SOL    HW2 4173   0.569   4.574   3.977  0.3612 -0.0242 -1.4607
 1452SOL     OW 4174   0.756   3.348   0.651 -0.7848  0.1849 -0.3277
 1452SOL    HW1 4175   0.671   3.390   0.618  0.6231  2.2753 -1.5579
 1452SOL    HW2 4176   0.810   3.318   0.573 -0.5796 -1.6495  0.4679
 1453SOL     OW 4177   2.741   0.008   4.489 -0.2035  0.2568 -0.0644
 1453SOL    HW1 4178   2.737   0.029   4.391 -0.6216  0.1038 -0.0820
 1453SOL    HW2 4179   2.650  -0.017   4.521 -0.3477  1.6168  0.6554
 1454SOL     OW 4180   2.168   2.184   2.327 -1.1980  0.0602  0.0898
 1454SOL    HW1 4181   2.123   2.096   2.334 -0.9124 -0.1267 -0.3675
 1454SOL    HW2 4182   2.249   2.186   2.386  0.5956 -1.1272 -2.1693
 1455SOL     OW 4183   2.048   4.516   2.305 -0.2083  0.8916  0.1142
 1455SOL    HW1 4184   2.116   4.545   2.373  0.5425  0.0629 -0.2580
 1455SOL    HW2 4185   2.035   4.589   2.238 -1.0884  1.7927  1.2082
 1456SOL     OW 4186   0.907   1.129   2.758 -0.5034  0.2721  0.3584
 1456SOL    HW1 4187   0.828   1.077   2.790 -1.5582  1.6300  0.0606
 1456SOL    HW2 4188   0.891   1.227   2.771 -0.9313  0.9565 -3.9144
 1457SOL     OW 4189   2.352   2.994   0.553 -0.4771  0.2621  0.1443
 1457SOL    HW1 4190   2.264   2.989   0.600  0.0318 -0.0169  1.1057
 1457SOL    HW2 4191   2.374   2.905   0.513 -0.6734  0.3614 -0.1919
 1458SOL     OW 4192   2.754   3.594   2.181 -0.7009  0.1124  0.2083
 1458SOL    HW1 4193   2.728   3.682   2.140  1.2739  0.9502  0.6307
 1458SOL    HW2 4194   2.672   3.539   2.196 -1.8602  1.3015 -1.3518
 1459SOL     OW 4195   2.662   1.550   2.103 -0.0791 -0.3012  0.2396
 1459SOL    HW1 4196   2.593   1.493   2.147  0.1067  0.3740  1.4368
 1459SOL    HW2 4197   2.627   1.643   2.094  0.3345 -0.1634  0.0139
 1460SOL     OW 4198   4.209   0.063   2.255 -0.1277 -0.5013 -0.4920
 1460SOL    HW1 4199   4.282   0.079   2.188 -0.2425  1.9531 -0.1345
 1460SOL    HW2 4200   4.249   0.059   2.346 -0.2208 -1.4806 -0.4883
 1461SOL     OW 4201   4.709   4.680   1.660 -0.0740 -0.0686  0.0192
 1461SOL    HW1 4202   4.776   4.746   1.626 -1.4139  1.2175 -0.2645
 1461SOL    HW2 4203   4.628   4.682   1.602 -0.9905 -0.4179  1.2296
 1462SOL     OW 4204   4.112   2.330   2.465  0.0186 -0.3536 -0.3711
 1462SOL    HW1 4205   4.114   2.411   2.524 -1.9121  0.0320 -0.7573
 1462SOL    HW2 4206   4.020   2.290   2.468  0.4433 -1.4647 -1.6119
 1463SOL     OW 4207   4.149   3.125   2.513 -0.2094  0.3601 -0.2030
 1463SOL    HW1 4208   4.057   3.163   2.520  0.7420  2.9305 -0.3909
 1463SOL    HW2 4209   4.175   3.082   2.600 -1.1715  0.6344  0.2305
 1464SOL     OW 4210   2.034   3.718   0.230 -0.2320  0.1305  0.5312
 1464SOL    HW1 4211   1.972   3.639   0.233 -1.4419  0.8551 -2.4072
 1464SOL    HW2 4212   2.122   3.690   0.192  0.4939 -0.3693  2.4239
 1465SOL     OW 4213   3.026   0.623   1.010 -0.1520  0.1586 -0.2900
 1465SOL    HW1 4214   3.109   0.607   1.064  0.3059  0.6035 -0.8469
 1465SOL    HW2 4215   3.049   0.619   0.912 -0.7347  0.5816 -0.4480
 1466SOL     OW 4216   3.485   1.892   0.949  0.2331  0.4109 -0.1026
 1466SOL    HW1 4217   3.542   1.887   1.031  0.0705 -1.0746 -0.0573
 1466SOL    HW2 4218   3.541   1.870   0.869  0.0089  0.1886 -0.1980
 1467SOL     OW 4219   0.148   3.177   1.718  0.1439 -0.3459  0.1464
 1467SOL    HW1 4220   0.144   3.243   1.642 -1.0624 -0.9730 -0.3594
 1467SOL    HW2 4221   0.190   3.221   1.797  0.6074  0.6079 -0.6041
 1468SOL     OW 4222   2.700   1.230   2.268  0.1288 -0.0837 -0.4577
 1468SOL    HW1 4223   2.628   1.288   2.230  0.7165  1.0974  0.1960
 1468SOL    HW2 4224   2.659   1.163   2.330 -0.5801 -0.5319 -1.3874
 1469SOL     OW 4225   2.747   2.957   0.809 -0.3527  0.7090  0.4253
 1469SOL    HW1 4226   2.699   2.937   0.895 -1.1370 -2.8896 -0.6728
 1469SOL    HW2 4227   2.692   3.018   0.753 -2.2414 -0.8233  0.5121
 1470SOL     OW 4228   1.015   3.575   2.583  0.3919 -0.0579  0.6188
 1470SOL    HW1 4229   1.105   3.617   2.588 -0.3596  1.6222  0.7279
 1470SOL    HW2 4230   0.949   3.641   2.547 -0.9219 -1.0581  1.0935
 1471SOL     OW 4231   1.263   3.572   3.536 -0.0529  0.1461  0.2740
 1471SOL    HW1 4232   1.164   3.589   3.543  0.1624  1.6004  0.1987
 1471SOL    HW2 4233   1.311   3.624   3.606  0.6312 -1.0592  0.7292
 1472SOL     OW 4234   3.726   4.522   3.654 -0.7497 -0.3161  0.1270
 1472SOL    HW1 4235   3.666   4.458   3.605 -0.6220 -0.3285 -0.0115
 1472SOL    HW2 4236   3.771   4.474   3.729 -0.4797 -0.4484 -0.1145
 1473SOL     OW 4237   2.021   4.630   4.324  0.3385 -0.1290  0.2952
 1473SOL    HW1 4238   2.016   4.584   4.235  0.9387 -0.4114  0.4023
 1473SOL    HW2 4239   2.117   4.641   4.350  0.1680  0.1722  0.7948
 1474SOL     OW 4240   4.160   0.312   2.608 -0.8404 -0.0919 -0.3850
 1474SOL    HW1 4241   4.075   0.362   2.593 -1.7414 -1.9735 -2.0726
 1474SOL    HW2 4242   4.236   0.360   2.564 -0.8538  1.8827  1.5819
 1475SOL     OW 4243   3.148   3.639   4.308 -0.2599  0.4621 -0.5415
 1475SOL    HW1 4244   3.241   3.624   4.340 -0.9605  1.6517  2.3551
 1475SOL    HW2 4245   3.119   3.562   4.251  2.3376 -0.0618 -1.2855
 1476SOL     OW 4246   1.495   3.181   0.083  0.1805  0.8081  0.6871
 1476SOL    HW1 4247   1.589   3.215   0.091 -0.5604  3.4253 -0.7794
 1476SOL    HW2 4248   1.489   3.116   0.008  0.8870  0.2245  1.1199
 1477SOL     OW 4249   3.319   3.297   5.036 -0.4781  0.2932 -0.2786
 1477SOL    HW1 4250   3.358   3.304   4.945  0.0466  3.2098  0.0670
 1477SOL    HW2 4251   3.221   3.317   5.032 -0.0801  2.5625 -0.0293
 1478SOL     OW 4252   4.979   3.976   2.851 -0.1058  0.1218  0.1260
 1478SOL    HW1 4253   4.880   3.972   2.838 -0.0410 -1.2920 -0.0791
 1478SOL    HW2 4254   5.009   4.071   2.847 -1.3906  0.5344 -0.2748
 1479SOL     OW 4255   1.763   1.339   4.085  0.0587 -0.1424  0.0079
 1479SOL    HW1 4256   1.839   1.383   4.132  1.9969  1.3629 -4.0614
 1479SOL    HW2 4257   1.766   1.241   4.101  1.8368  0.0742  1.2484
 1480SOL     OW 4258   4.173   2.317   0.346  0.3044 -0.4928 -0.0687
 1480SOL    HW1 4259   4.169   2.354   0.439 -0.3859 -2.0643  0.5677
 1480SOL    HW2 4260   4.252   2.255   0.338  0.4992 -0.1831 -0.6104
 1481SOL     OW 4261   1.063   0.278   4.982 -0.1232  0.2689  0.0080
 1481SOL    HW1 4262   0.974   0.289   5.026 -0.3420 -0.6845 -0.1689
 1481SOL    HW2 4263   1.055   0.211   4.908  1.2748 -1.7603  1.5935
 1482SOL     OW 4264   4.603   4.725   0.716  0.2213  0.0061  0.4414
 1482SOL    HW1 4265   4.543   4.674   0.653  0.6045 -0.9881  0.8599
 1482SOL    HW2 4266   4.666   4.661   0.760  0.2260  0.7517  1.5373
 1483SOL     OW 4267   1.624   2.631   2.177 -0.1807  0.1312  0.3717
 1483SOL    HW1 4268   1.691   2.701   2.202 -0.5261  0.8606 -0.6644
 1483SOL    HW2 4269   1.532   2.670   2.184 -0.3696 -0.1813 -0.3104
 1484SOL     OW 4270   5.032   3.748   0.929  0.3332  0.0689  0.2324
 1484SOL    HW1 4271   5.034   3.838   0.886 -0.9992 -0.2175 -0.4911
 1484SOL    HW2 4272   4.975   3.752   1.011 -0.6011 -0.3284 -0.3783
 1485SOL     OW 4273   0.719   4.682   3.613 -0.7708  0.0731  0.3703
 1485SOL    HW1 4274   0.773   4.759   3.577  0.2012 -0.5515  0.4581
 1485SOL    HW2 4275   0.700   4.618   3.539 -0.1691 -0.4074  0.6258
 1486SOL     OW 4276   0.451   3.745   1.843 -0.5392 -0.7054 -0.7003
 1486SOL    HW1 4277   0.415   3.652   1.849 -2.9588  0.2455  1.3146
 1486SOL    HW2 4278   0.482   3.775   1.934 -2.3209  1.3119 -0.6697
 1487SOL     OW 4279   0.570   0.765   4.268 -0.4808  0.4849  0.2540
 1487SOL    HW1 4280   0.543   0.698   4.337 -0.5457  0.5274  0.2693
 1487SOL    HW2 4281   0.546   0.730   4.177 -0.4445  0.4533  0.2562
 1488SOL     OW 4282   2.702   0.224   3.395 -0.4253 -0.2766 -0.0341
 1488SOL    HW1 4283   2.769   0.201   3.466 -0.3463  1.4725  0.5053
 1488SOL    HW2 4284   2.623   0.163   3.403  0.7609 -1.9137 -0.2382
 1489SOL     OW 4285   3.404   3.861   3.364 -0.3267 -0.5431 -0.6073
 1489SOL    HW1 4286   3.430   3.817   3.278  0.3530 -1.1438 -0.0991
 1489SOL    HW2 4287   3.482   3.912   3.400  0.0103 -1.8684  0.6283
 1490SOL     OW 4288   4.738   2.827   4.711  0.0320 -0.2962 -0.1891
 1490SOL    HW1 4289   4.646   2.819   4.748 -0.0376 -0.1044 -0.3198
 1490SOL    HW2 4290   4.742   2.779   4.623  0.1688 -0.6621  0.0117
 1491SOL     OW 4291   2.021   0.715   0.178 -0.1057  0.6526 -0.4495
 1491SOL    HW1 4292   2.092   0.676   0.237 -0.5580  2.0193  1.0623
 1491SOL    HW2 4293   2.063   0.751   0.094  0.7771  0.1763 -0.2257
 1492SOL     OW 4294   3.647   0.443   1.927 -0.6172 -0.0191  0.2826
 1492SOL    HW1 4295   3.732   0.398   1.954 -0.4035  1.3031  1.9869
 1492SOL    HW2 4296   3.667   0.527   1.877 -1.0057 -1.1188 -1.8420
 1493SOL     OW 4297   2.741   3.186   2.105  0.1444 -0.3766  0.0708
 1493SOL    HW1 4298   2.764   3.148   2.015  0.7223 -2.3936  1.0068
 1493SOL    HW2 4299   2.798   3.266   2.123  2.0056 -1.5610 -0.2799
 1494SOL     OW 4300   3.989   1.296   3.511  0.3537  0.0591  0.1392
 1494SOL    HW1 4301   3.953   1.325   3.599 -0.5014 -1.5719  0.3787
 1494SOL    HW2 4302   3.928   1.227   3.472  1.9587 -0.9948 -0.6046
 1495SOL     OW 4303   1.374   1.863   3.066  0.0518 -0.0864  0.2149
 1495SOL    HW1 4304   1.438   1.939   3.064  1.4970 -1.1525  2.2517
 1495SOL    HW2 4305   1.393   1.801   2.990 -2.3000  2.3206 -2.5844
 1496SOL     OW 4306   4.395   0.658   3.814  0.4601 -0.1270 -0.1741
 1496SOL    HW1 4307   4.382   0.587   3.746  0.4786 -1.1720  0.8785
 1496SOL    HW2 4308   4.308   0.703   3.833  0.4889  0.2833 -0.9915
 1497SOL     OW 4309   4.527   1.029   2.510  0.0629 -0.1808  0.2873
 1497SOL    HW1 4310   4.614   1.039   2.557 -0.1456 -0.0640  0.6501
 1497SOL    HW2 4311   4.487   0.940   2.533 -0.3686  0.1665  0.8794
 1498SOL     OW 4312   1.520   1.342   0.022 -0.3899  0.4302  0.5842
 1498SOL    HW1 4313   1.500   1.393   0.106  0.1824  1.1593  0.2881
 1498SOL    HW2 4314   1.456   1.369  -0.050 -0.0120  0.8297  0.3927
 1499SOL     OW 4315   2.365   0.569   2.806  0.0114  0.0303  0.5221
 1499SOL    HW1 4316   2.332   0.664   2.806 -0.5711 -0.1560  1.4289
 1499SOL    HW2 4317   2.453   0.564   2.760  0.8392  1.3092  1.8688
 1500SOL     OW 4318   2.897   1.284   0.079  0.2472  0.2606 -0.2779
 1500SOL    HW1 4319   2.846   1.336   0.148  0.8001  1.6512 -0.8661
 1500SOL    HW2 4320   2.874   1.187   0.086 -0.5830  0.5272  1.0841
 1501SOL     OW 4321   4.549   3.739   4.782  0.4028  0.2087 -0.1103
 1501SOL    HW1 4322   4.608   3.662   4.808  0.4927  0.7308  1.3616
 1501SOL    HW2 4323   4.532   3.736   4.684 -0.4209 -2.2672  0.0389
 1502SOL     OW 4324   4.705   2.653   4.471  0.1690 -0.5603  0.3856
 1502SOL    HW1 4325   4.709   2.553   4.465  0.7555 -0.5774  0.9567
 1502SOL    HW2 4326   4.758   2.692   4.395 -0.8683 -0.6662 -0.4068
 1503SOL     OW 4327   0.225   2.249   4.527 -0.5613 -0.0982  0.0881
 1503SOL    HW1 4328   0.174   2.307   4.590 -0.5563 -0.3670  0.3421
 1503SOL    HW2 4329   0.319   2.241   4.559 -0.3789  0.3159 -0.3252
 1504SOL     OW 4330   4.698   0.882   1.562  0.0256 -0.1543  0.0951
 1504SOL    HW1 4331   4.782   0.927   1.590  0.3719  0.5019 -1.8202
 1504SOL    HW2 4332   4.619   0.930   1.600  0.4682  0.2574  0.5005
 1505SOL     OW 4333   4.011   0.371   1.331  0.1923 -0.1748 -0.8914
 1505SOL    HW1 4334   3.983   0.333   1.243 -0.6837  0.5829 -0.9650
 1505SOL    HW2 4335   3.980   0.311   1.405 -0.5151 -0.0036 -1.0400
 1506SOL     OW 4336   1.465   2.508   3.512 -0.3540 -0.2533  0.0731
 1506SOL    HW1 4337   1.390   2.507   3.578 -0.9362  0.7200 -0.5556
 1506SOL    HW2 4338   1.526   2.431   3.531 -1.3490 -0.9049  0.7674
 1507SOL     OW 4339   0.704   2.482   3.661 -0.4386  0.0472 -0.3916
 1507SOL    HW1 4340   0.669   2.437   3.579 -0.8662 -0.2116 -0.0709
 1507SOL    HW2 4341   0.782   2.540   3.636 -0.5225 -0.0771 -0.9677
 1508SOL     OW 4342   4.366   4.392   3.154 -0.0973  0.3710 -0.3767
 1508SOL    HW1 4343   4.269   4.372   3.169  0.2791 -0.6451  0.8347
 1508SOL    HW2 4344   4.387   4.482   3.193 -0.2082 -0.1241  0.8692
 1509SOL     OW 4345   4.247   1.214   3.526 -0.2717  0.4523  0.2577
 1509SOL    HW1 4346   4.286   1.280   3.590  0.6793 -0.3529  0.5367
 1509SOL    HW2 4347   4.148   1.223   3.525 -0.1687  1.6808  0.5037
 1510SOL     OW 4348   3.494   1.140   4.511  0.0487  0.0547  0.2765
 1510SOL    HW1 4349   3.493   1.158   4.609 -1.9286 -0.2437  0.3406
 1510SOL    HW2 4350   3.585   1.163   4.474  0.6537  0.6892  2.0513
 1511SOL     OW 4351   4.784   1.243   4.509 -0.0054 -0.0870  0.2362
 1511SOL    HW1 4352   4.813   1.208   4.598  1.1554 -1.2433 -0.5613
 1511SOL    HW2 4353   4.851   1.308   4.475  0.0862 -0.4238 -0.2404
 1512SOL     OW 4354   0.269   1.375   0.060  0.3420  0.1576 -0.2772
 1512SOL    HW1 4355   0.258   1.277   0.043 -3.3746  0.4900 -0.7645
 1512SOL    HW2 4356   0.322   1.416  -0.014  1.8781 -1.4106 -0.1174
 1513SOL     OW 4357   2.304   4.275   1.400 -0.7114  0.2907 -0.0963
 1513SOL    HW1 4358   2.357   4.247   1.320 -0.7702 -0.8731  0.2572
 1513SOL    HW2 4359   2.329   4.368   1.425  0.6622  0.0231 -0.3678
 1514SOL     OW 4360   3.968   4.378   2.231 -0.1365  0.4122 -0.9138
 1514SOL    HW1 4361   3.993   4.474   2.215  0.1523  0.6325  0.7110
 1514SOL    HW2 4362   3.980   4.356   2.327 -0.2593 -1.2646 -1.2549
 1515SOL     OW 4363   3.078   2.525   5.002  0.0573 -0.0334  0.6059
 1515SOL    HW1 4364   3.085   2.598   5.070  1.4728  1.1415 -0.7322
 1515SOL    HW2 4365   3.161   2.523   4.946  0.5510 -3.3807  1.2371
 1516SOL     OW 4366   1.853   4.234   4.362  0.9930 -0.2442  0.5671
 1516SOL    HW1 4367   1.935   4.199   4.407  1.6145 -0.7621 -0.8959
 1516SOL    HW2 4368   1.812   4.161   4.307 -0.0630  0.2068  0.7368
 1517SOL     OW 4369   2.380   3.797   2.070 -0.0513  0.6003  0.4705
 1517SOL    HW1 4370   2.473   3.795   2.107  0.8075 -2.0484 -1.5282
 1517SOL    HW2 4371   2.358   3.890   2.041  2.3787  1.1278  0.1164
 1518SOL     OW 4372   1.957   3.518   1.597 -0.4110 -0.1780  0.3355
 1518SOL    HW1 4373   2.003   3.481   1.678  0.4755 -1.3668 -0.6587
 1518SOL    HW2 4374   1.931   3.612   1.614  0.6016 -0.0970  1.6716
 1519SOL     OW 4375   2.904   4.083   0.456  0.5923  0.0569 -0.2935
 1519SOL    HW1 4376   2.876   4.031   0.537  0.6743 -0.6457 -0.7122
 1519SOL    HW2 4377   2.953   4.023   0.393  2.9531  1.1916  0.3477
 1520SOL     OW 4378   0.489   4.755   1.185  0.9590  0.9654  0.0312
 1520SOL    HW1 4379   0.477   4.699   1.103  3.0063  0.1157  0.2525
 1520SOL    HW2 4380   0.576   4.732   1.229 -0.5791  0.5410  3.1266
 1521SOL     OW 4381   4.393   3.446   1.491  0.1260  0.2330 -0.1913
 1521SOL    HW1 4382   4.382   3.495   1.404 -0.6444 -0.6766 -0.6316
 1521SOL    HW2 4383   4.483   3.404   1.494 -0.0126 -0.1179 -0.7633
 1522SOL     OW 4384   0.770   1.436   4.909  0.9287  0.2525 -0.0284
 1522SOL    HW1 4385   0.710   1.516   4.912  0.9490  0.3217 -1.0007
 1522SOL    HW2 4386   0.849   1.451   4.969  1.6265  1.5550 -1.1913
 1523SOL     OW 4387   0.881   0.186   0.540 -0.1257  0.3513 -0.0029
 1523SOL    HW1 4388   0.902   0.198   0.443 -1.2389  0.9698 -0.1854
 1523SOL    HW2 4389   0.783   0.167   0.551  0.3425 -1.9367  0.8352
 1524SOL     OW 4390   4.083   2.949   0.412  0.4466 -0.3853 -0.2628
 1524SOL    HW1 4391   4.163   2.977   0.358  1.0805 -1.3364  0.1566
 1524SOL    HW2 4392   4.092   2.853   0.438 -1.1710 -0.7069 -0.7805
 1525SOL     OW 4393   1.912   2.539   1.448  0.0131 -0.1845  0.6396
 1525SOL    HW1 4394   1.871   2.584   1.369 -0.2279  1.4620  1.6435
 1525SOL    HW2 4395   2.005   2.508   1.425  0.8833  2.4069  0.3380
 1526SOL     OW 4396   0.978   4.051   3.777 -0.6042 -0.2290  0.3276
 1526SOL    HW1 4397   1.004   4.133   3.827 -0.0829 -1.0704  1.4921
 1526SOL    HW2 4398   0.970   3.974   3.841  1.3377 -1.6505 -0.9977
 1527SOL     OW 4399   0.198   1.848   0.908  0.0029  0.4698  0.2725
 1527SOL    HW1 4400   0.102   1.833   0.886  0.1414  0.7962 -0.6183
 1527SOL    HW2 4401   0.205   1.896   0.995 -0.5785 -0.7956  1.0415
 1528SOL     OW 4402   0.570   1.853   0.455  0.5666 -0.1016 -0.1894
 1528SOL    HW1 4403   0.619   1.936   0.429  1.6035 -0.8430 -0.6795
 1528SOL    HW2 4404   0.604   1.819   0.542 -1.3513  1.1377  1.1111
 1529SOL     OW 4405   0.060   2.355   3.216  0.4595 -0.2262 -0.0455
 1529SOL    HW1 4406   0.010   2.269   3.226  0.2540 -0.2630 -1.3224
 1529SOL    HW2 4407   0.112   2.373   3.300 -1.4341 -0.3471  1.2181
 1530SOL     OW 4408   3.454   0.105   2.028 -0.1008 -0.1807  0.1008
 1530SOL    HW1 4409   3.532   0.091   1.967 -0.4933  1.4273 -0.8167
 1530SOL    HW2 4410   3.434   0.019   2.076  1.3757 -0.9848 -0.6301
 1531SOL     OW 4411   2.884   0.860   3.587 -0.8134 -0.1146  0.0783
 1531SOL    HW1 4412   2.852   0.767   3.573  0.0326 -0.1694 -1.8646
 1531SOL    HW2 4413   2.975   0.870   3.547 -0.1761  1.1324  1.7149
 1532SOL     OW 4414   2.612   3.875   3.068 -0.5906  0.6844 -0.2697
 1532SOL    HW1 4415   2.672   3.950   3.097  2.6072 -0.6193 -2.9155
 1532SOL    HW2 4416   2.617   3.801   3.136 -1.4864  1.6522  0.9015
 1533SOL     OW 4417   3.768   5.002   4.793 -0.4130  0.2467 -0.1110
 1533SOL    HW1 4418   3.784   5.079   4.854  0.3784 -0.6740  0.8900
 1533SOL    HW2 4419   3.670   4.989   4.781 -0.5759  0.6911  0.6554
 1534SOL     OW 4420   2.039   4.075   3.255  0.1826 -0.2428 -0.3170
 1534SOL    HW1 4421   2.049   4.136   3.177  1.1719  3.6512  2.5403
 1534SOL    HW2 4422   2.122   4.020   3.266  0.1187 -0.6637 -1.7825
 1535SOL     OW 4423   3.276   2.824   1.799  0.7129  0.0886  0.1764
 1535SOL    HW1 4424   3.282   2.788   1.706  1.7157 -0.8445  0.5743
 1535SOL    HW2 4425   3.215   2.766   1.854  1.8496 -0.6947  0.6568
 1536SOL     OW 4426   1.676   3.995   3.091 -0.0037  0.4338  0.5948
 1536SOL    HW1 4427   1.663   4.095   3.087  2.0147  0.7187 -0.8222
 1536SOL    HW2 4428   1.684   3.966   3.186 -3.1644  1.1885  1.1921
 1537SOL     OW 4429   3.253   4.814   2.770 -0.0152 -0.0540 -0.1464
 1537SOL    HW1 4430   3.225   4.907   2.792  1.5546  0.2094  0.8808
 1537SOL    HW2 4431   3.352   4.811   2.755  0.0893 -1.6745  0.5872
 1538SOL     OW 4432   4.661   1.337   4.206 -0.1004  0.1903  0.2102
 1538SOL    HW1 4433   4.572   1.305   4.172  0.2788 -0.0095 -0.6400
 1538SOL    HW2 4434   4.660   1.341   4.306 -0.7551 -0.7463  0.2510
 1539SOL     OW 4435   4.984   0.880   2.829 -0.1834 -0.0265 -0.1428
 1539SOL    HW1 4436   5.013   0.838   2.743 -1.8097 -0.8675 -0.3136
 1539SOL    HW2 4437   5.026   0.971   2.838  1.8514 -0.8548 -0.6947
 1540SOL     OW 4438   1.161   1.821   4.838  0.1526  0.0587  0.0984
 1540SOL    HW1 4439   1.153   1.778   4.929  0.3349 -1.3972 -0.5426
 1540SOL    HW2 4440   1.077   1.805   4.787 -0.0863  1.1899  0.1275
 1541SOL     OW 4441   1.536   0.685   1.064 -0.5940  0.5679  0.1824
 1541SOL    HW1 4442   1.437   0.684   1.051 -0.7967 -2.3807  1.1942
 1541SOL    HW2 4443   1.582   0.657   0.980 -0.7020  0.6720  0.0893
 1542SOL     OW 4444   1.061   3.461   4.099 -0.2541  0.0550  0.4705
 1542SOL    HW1 4445   1.040   3.548   4.144 -0.2165  1.3989 -1.9262
 1542SOL    HW2 4446   0.985   3.436   4.040  0.6394 -0.4065 -0.5088
 1543SOL     OW 4447   2.485   4.105   2.755  0.0464  0.1757  0.5189
 1543SOL    HW1 4448   2.490   4.019   2.703 -1.9032  0.9278 -1.0188
 1543SOL    HW2 4449   2.577   4.128   2.787  1.1942 -0.9171 -1.6563
 1544SOL     OW 4450   4.047   4.628   2.215 -0.0238 -0.5426  0.5285
 1544SOL    HW1 4451   4.120   4.695   2.228  1.6501 -1.8136 -1.6106
 1544SOL    HW2 4452   3.976   4.666   2.155  1.1953 -0.7981 -1.1404
 1545SOL     OW 4453   2.175   1.524   2.556  0.7496  0.4411  0.5088
 1545SOL    HW1 4454   2.113   1.520   2.634  1.5399 -1.3692  1.0848
 1545SOL    HW2 4455   2.139   1.468   2.482  0.8139  0.8460  0.1650
 1546SOL     OW 4456   4.134   4.243   2.736  0.0020  0.2087 -0.0361
 1546SOL    HW1 4457   4.169   4.169   2.679  1.4093  0.2406  0.7557
 1546SOL    HW2 4458   4.081   4.306   2.679  0.3639 -0.3953 -1.0750
 1547SOL     OW 4459   3.269   4.958   1.458 -0.3410  0.0716 -0.2476
 1547SOL    HW1 4460   3.327   4.958   1.377  0.4629 -0.1982  0.3128
 1547SOL    HW2 4461   3.308   5.019   1.527 -1.4615  0.9411 -0.3641
 1548SOL     OW 4462   0.558   3.215   0.812  0.5067  0.2929 -0.4153
 1548SOL    HW1 4463   0.544   3.296   0.869  1.2894  0.4132 -0.3776
 1548SOL    HW2 4464   0.479   3.201   0.752  0.5981  1.4091 -0.8147
 1549SOL     OW 4465   4.065   3.932   3.367  0.1212 -0.1455 -0.2347
 1549SOL    HW1 4466   4.160   3.958   3.353  0.6098 -0.0193  2.7004
 1549SOL    HW2 4467   4.015   4.008   3.408 -1.3672 -0.1372 -1.9148
 1550SOL     OW 4468   0.899   3.843   3.973 -0.1819 -0.1693  0.3948
 1550SOL    HW1 4469   0.908   3.812   4.068 -0.7263  1.1416  0.9086
 1550SOL    HW2 4470   0.809   3.819   3.938 -0.2448 -0.0394  0.4640
 1551SOL     OW 4471   1.537   2.044   0.564 -0.1525 -0.6836  0.4800
 1551SOL    HW1 4472   1.484   2.109   0.508 -0.8790 -1.0966  0.6741
 1551SOL    HW2 4473   1.620   2.018   0.515 -0.4870 -0.5890 -0.1496
 1552SOL     OW 4474   3.730   1.270   0.909 -0.0952 -0.2409 -0.3295
 1552SOL    HW1 4475   3.699   1.222   0.991  1.7181 -0.3832  0.3088
 1552SOL    HW2 4476   3.678   1.355   0.899 -0.6985 -0.4740  0.6622
 1553SOL     OW 4477   2.448   4.540   0.101 -0.1493  0.4871  0.1487
 1553SOL    HW1 4478   2.472   4.519   0.006  0.9332 -1.8046  0.8633
 1553SOL    HW2 4479   2.530   4.537   0.158 -1.1636 -1.3750  1.6574
 1554SOL     OW 4480   0.450   3.953   1.129  0.0652 -0.5173  0.5702
 1554SOL    HW1 4481   0.518   4.005   1.181  1.1324  1.2676 -2.3384
 1554SOL    HW2 4482   0.493   3.874   1.087  0.1236  0.0035 -0.3835
 1555SOL     OW 4483   0.839   4.398   3.117 -0.0070  0.0104  0.1046
 1555SOL    HW1 4484   0.891   4.428   3.197  0.3675 -0.3917  0.0132
 1555SOL    HW2 4485   0.900   4.391   3.038 -0.1715 -0.5691  0.0209
 1556SOL     OW 4486   0.510   4.493   4.344  0.2532 -0.2032  0.4988
 1556SOL    HW1 4487   0.519   4.492   4.244 -0.4711 -0.0222  0.4279
 1556SOL    HW2 4488   0.470   4.407   4.375 -3.1855  1.1621  0.2437
 1557SOL     OW 4489   4.604   2.188   0.765  0.2248 -0.1094 -0.1987
 1557SOL    HW1 4490   4.596   2.169   0.667  1.5606  2.4843 -0.8994
 1557SOL    HW2 4491   4.680   2.136   0.804 -0.0073 -0.7768 -0.6235
 1558SOL     OW 4492   4.370   1.472   4.281  0.4626 -0.3704  0.3956
 1558SOL    HW1 4493   4.352   1.403   4.211 -3.3699  0.2303  0.5906
 1558SOL    HW2 4494   4.402   1.428   4.365 -1.3657 -1.8775  0.3414
 1559SOL     OW 4495   3.153   2.933   3.282 -0.2401 -0.3790 -0.1060
 1559SOL    HW1 4496   3.066   2.958   3.326 -0.8657 -0.6309 -1.1633
 1559SOL    HW2 4497   3.173   2.997   3.208  0.2614 -0.5696 -0.1371
 1560SOL     OW 4498   1.761   2.627   1.948 -0.0861 -0.7398  0.4094
 1560SOL    HW1 4499   1.696   2.623   2.023  0.2137  0.6054  0.7695
 1560SOL    HW2 4500   1.854   2.611   1.983  0.2878  1.7060  0.7061
 1561SOL     OW 4501   3.506   3.819   0.659 -0.0021  0.8449 -0.0930
 1561SOL    HW1 4502   3.568   3.874   0.715  0.8134  2.3253 -2.3065
 1561SOL    HW2 4503   3.453   3.757   0.718  0.4136  2.6379  2.3145
 1562SOL     OW 4504   3.102   4.284   1.380  0.1286  0.2142 -0.1716
 1562SOL    HW1 4505   3.108   4.280   1.280 -1.7296 -0.8430 -0.2892
 1562SOL    HW2 4506   3.064   4.372   1.407  0.1829  0.3201 -0.4377
 1563SOL     OW 4507   3.265   4.620   2.979 -0.0088  0.2706  0.4521
 1563SOL    HW1 4508   3.284   4.694   3.042  2.4508  0.1197  0.0063
 1563SOL    HW2 4509   3.242   4.657   2.889 -0.4471  0.4819  0.6508
 1564SOL     OW 4510   2.994   2.115   0.950  0.3110 -0.0128  0.2393
 1564SOL    HW1 4511   3.052   2.142   1.027 -1.2718  2.0995  0.8050
 1564SOL    HW2 4512   2.959   2.198   0.905 -1.7284 -1.2025 -0.4689
 1565SOL     OW 4513   3.437   0.354   4.883 -0.2075 -0.2885  0.5287
 1565SOL    HW1 4514   3.393   0.271   4.917  0.5440 -0.4804  1.0612
 1565SOL    HW2 4515   3.483   0.334   4.796 -0.4847 -0.2857  0.3787
 1566SOL     OW 4516   1.734   4.742   1.442  0.0444 -0.1963 -0.2769
 1566SOL    HW1 4517   1.645   4.697   1.437 -0.0733  0.0868 -0.7956
 1566SOL    HW2 4518   1.748   4.779   1.534 -0.0989 -0.7976 -0.0107
 1567SOL     OW 4519   3.167   0.800   3.593 -0.4270  0.0490  0.2406
 1567SOL    HW1 4520   3.201   0.727   3.533 -0.2889 -1.0981  1.6548
 1567SOL    HW2 4521   3.183   0.889   3.550 -1.0897 -0.7522 -1.7831
 1568SOL     OW 4522   0.136   1.339   1.772 -0.9878  0.2432  0.1219
 1568SOL    HW1 4523   0.162   1.367   1.864  1.3722  0.1951 -0.4851
 1568SOL    HW2 4524   0.083   1.413   1.729 -1.6031  0.5001  1.2721
 1569SOL     OW 4525   3.324   4.171   4.307 -0.2835 -0.0398  0.1354
 1569SOL    HW1 4526   3.275   4.111   4.370  0.0385 -1.4799 -0.9158
 1569SOL    HW2 4527   3.390   4.227   4.358 -0.7117 -0.4606  1.1741
 1570SOL     OW 4528   0.196   4.682   2.185  0.4247 -0.1420  0.3104
 1570SOL    HW1 4529   0.180   4.698   2.282 -0.8675  0.9230 -0.0423
 1570SOL    HW2 4530   0.248   4.758   2.146  0.2371 -0.1645  0.0083
 1571SOL     OW 4531   4.731   2.841   3.244 -0.2490 -0.4735  0.0259
 1571SOL    HW1 4532   4.646   2.789   3.249 -0.5438  0.0799  1.0446
 1571SOL    HW2 4533   4.776   2.840   3.333  0.2162  0.2181 -0.1925
 1572SOL     OW 4534   1.168   4.274   4.205 -0.5183  0.7571 -0.1370
 1572SOL    HW1 4535   1.189   4.201   4.141 -0.6521  0.5059  0.1044
 1572SOL    HW2 4536   1.146   4.358   4.154 -1.1767  0.4129 -0.4339
 1573SOL     OW 4537   0.803   0.276   0.119 -0.2260  0.0018  0.9451
 1573SOL    HW1 4538   0.708   0.252   0.139 -0.4400  0.5692  0.6258
 1573SOL    HW2 4539   0.810   0.374   0.103 -0.2787 -0.4674 -2.8554
 1574SOL     OW 4540   3.784   1.007   3.943  0.0419 -0.6379  0.4054
 1574SOL    HW1 4541   3.786   1.054   4.031  0.2796 -0.8789  0.5310
 1574SOL    HW2 4542   3.691   0.977   3.922  0.1408 -1.3973  1.0111
 1575SOL     OW 4543   1.670   3.970   0.379 -0.3718  0.6560 -0.1563
 1575SOL    HW1 4544   1.706   3.877   0.389 -0.2665  0.6657 -0.4186
 1575SOL    HW2 4545   1.598   3.985   0.445 -0.5656  0.2975 -0.2812
 1576SOL     OW 4546   3.186   1.074   0.729 -0.3063 -0.0393  0.6500
 1576SOL    HW1 4547   3.252   1.001   0.709 -0.2418  0.7651 -2.6303
 1576SOL    HW2 4548   3.233   1.162   0.731 -0.7173  0.1835  2.4905
 1577SOL     OW 4549   4.985   1.770   0.810 -0.0371 -0.0807  0.1711
 1577SOL    HW1 4550   4.996   1.746   0.713  1.0830  0.1787  0.2138
 1577SOL    HW2 4551   5.013   1.693   0.867 -2.2285 -0.8385  0.3230
 1578SOL     OW 4552   1.159   4.183   0.693  0.0649  0.2807 -0.1298
 1578SOL    HW1 4553   1.138   4.117   0.621  1.2369 -0.2789  0.0215
 1578SOL    HW2 4554   1.100   4.263   0.682 -2.0535 -1.1423  0.2507
 1579SOL     OW 4555   4.999   2.120   3.214 -0.3236 -0.1248  0.1149
 1579SOL    HW1 4556   4.962   2.068   3.136  1.2524  0.0884 -0.8322
 1579SOL    HW2 4557   5.029   2.056   3.284 -0.8225 -0.3706  0.1090
 1580SOL     OW 4558   3.725   1.692   3.156  0.7974  0.4705 -0.0752
 1580SOL    HW1 4559   3.687   1.670   3.246  1.4592  0.3542  0.1840
 1580SOL    HW2 4560   3.736   1.608   3.103 -0.7604  0.6679 -0.7508
 1581SOL     OW 4561   1.516   5.025   2.788  0.2123 -0.1455 -0.1430
 1581SOL    HW1 4562   1.570   5.015   2.704 -0.1089  0.0481 -0.3775
 1581SOL    HW2 4563   1.446   4.954   2.791  0.1510 -0.0833 -0.0973
 1582SOL     OW 4564   2.139   2.941   4.819 -0.6243 -0.1642 -0.1490
 1582SOL    HW1 4565   2.223   2.984   4.852  0.6909 -1.6829 -1.3028
 1582SOL    HW2 4566   2.114   2.865   4.879 -0.6888 -0.2345 -0.2645
 1583SOL     OW 4567   0.822   4.071   3.347  0.6185 -0.8867  0.2538
 1583SOL    HW1 4568   0.745   4.013   3.322  1.1633 -1.1193 -0.9290
 1583SOL    HW2 4569   0.870   4.101   3.265  1.0509  0.2829  0.9103
 1584SOL     OW 4570   2.434   0.802   4.759  0.2408 -0.3637 -0.6273
 1584SOL    HW1 4571   2.424   0.741   4.838 -1.7428  0.1892 -0.3814
 1584SOL    HW2 4572   2.374   0.770   4.685 -1.6056  1.7383 -0.1468
 1585SOL     OW 4573   1.599   2.987   1.205  0.6096  0.4164 -0.4127
 1585SOL    HW1 4574   1.633   2.936   1.283  1.9323  0.1402 -1.1452
 1585SOL    HW2 4575   1.528   2.933   1.158  3.0030 -1.5342 -2.0459
 1586SOL     OW 4576   0.665   3.465   2.063 -0.5599  0.2396 -0.3862
 1586SOL    HW1 4577   0.704   3.555   2.086  0.4484 -0.3882  0.4338
 1586SOL    HW2 4578   0.646   3.461   1.965  0.3656  0.9822 -0.6121
 1587SOL     OW 4579   0.496   0.212   1.237  0.0069  0.5388 -0.0522
 1587SOL    HW1 4580   0.523   0.248   1.148 -0.8132 -0.4889 -0.7383
 1587SOL    HW2 4581   0.486   0.113   1.231  1.1998  0.2902  1.5233
 1588SOL     OW 4582   2.659   0.657   1.371  0.1194 -0.0807 -0.6547
 1588SOL    HW1 4583   2.671   0.673   1.272  1.3940 -1.9481 -0.8622
 1588SOL    HW2 4584   2.595   0.582   1.385 -0.2499  0.3459 -0.0432
 1589SOL     OW 4585   0.764   1.006   1.284 -0.0881  0.1652 -0.2640
 1589SOL    HW1 4586   0.666   1.018   1.266 -0.7287 -2.2199  1.2220
 1589SOL    HW2 4587   0.788   1.058   1.366 -0.6733 -1.0204  0.6900
 1590SOL     OW 4588   2.949   4.607   5.013  1.0637 -0.2009 -0.4613
 1590SOL    HW1 4589   2.934   4.544   5.089  2.0311  1.4361  1.1505
 1590SOL    HW2 4590   3.045   4.605   4.985  1.4605  1.5408  0.5999
 1591SOL     OW 4591   4.020   2.092   1.934 -0.0343 -0.1877  0.0786
 1591SOL    HW1 4592   4.068   2.176   1.907  0.1963 -0.5434 -0.6203
 1591SOL    HW2 4593   3.923   2.099   1.909 -0.2268  0.2582  0.8952
 1592SOL     OW 4594   0.713   3.283   2.264 -0.1439 -0.1525 -0.4381
 1592SOL    HW1 4595   0.687   3.346   2.191 -1.9105 -0.6520 -0.2935
 1592SOL    HW2 4596   0.723   3.333   2.350 -3.2419 -0.1882  0.0598
 1593SOL     OW 4597   0.704   3.480   0.349 -0.6491  0.6926  0.1809
 1593SOL    HW1 4598   0.626   3.481   0.412  0.1103 -1.0881  1.2339
 1593SOL    HW2 4599   0.770   3.549   0.378 -0.3483 -0.0518  1.3457
 1594SOL     OW 4600   1.526   2.686   1.423  0.3384  0.2069 -0.4443
 1594SOL    HW1 4601   1.528   2.597   1.468  0.3369  0.2793 -0.2999
 1594SOL    HW2 4602   1.486   2.754   1.485  1.2160  0.5076 -0.2014
 1595SOL     OW 4603   1.401   2.971   3.456  0.2239  0.4350  0.3522
 1595SOL    HW1 4604   1.368   2.937   3.368 -0.0924  0.7373  0.3511
 1595SOL    HW2 4605   1.494   3.006   3.445 -0.0754  1.1507 -0.0429
 1596SOL     OW 4606   2.352   0.999   1.438  0.2221  0.1245  0.0328
 1596SOL    HW1 4607   2.281   0.966   1.500  0.6891 -0.6288  0.1912
 1596SOL    HW2 4608   2.329   1.090   1.405 -1.4332 -0.5911 -0.8927
 1597SOL     OW 4609   0.508   2.001   3.114  0.2575  0.0738 -0.6489
 1597SOL    HW1 4610   0.426   1.991   3.170 -0.7656 -0.5926 -2.1968
 1597SOL    HW2 4611   0.584   1.954   3.158 -0.2148  0.5217  0.7134
 1598SOL     OW 4612   4.715   1.947   2.320  0.2463  0.1125  0.1738
 1598SOL    HW1 4613   4.739   2.014   2.249 -1.1788  0.0012 -0.4414
 1598SOL    HW2 4614   4.621   1.963   2.350  0.2496 -0.9539  0.7850
 1599SOL     OW 4615   3.370   2.410   1.488 -0.2432 -0.3075 -0.6704
 1599SOL    HW1 4616   3.294   2.394   1.426 -1.2269 -2.8532  1.0290
 1599SOL    HW2 4617   3.377   2.334   1.553  1.2549  1.7717  1.8052
 1600SOL     OW 4618   1.340   4.599   0.991 -0.4908  0.3009 -0.1699
 1600SOL    HW1 4619   1.407   4.583   0.918  0.7403  2.7538  0.3200
 1600SOL    HW2 4620   1.341   4.521   1.054 -1.0069 -1.5022 -2.2792
 1601SOL     OW 4621   2.554   0.643   2.153 -0.9501 -0.8304  0.7932
 1601SOL    HW1 4622   2.547   0.625   2.251 -2.1215 -1.0599  0.6918
 1601SOL    HW2 4623   2.618   0.579   2.111  0.0546 -0.3041  1.5049
 1602SOL     OW 4624   0.910   3.892   3.568 -0.4261  0.2826  0.7473
 1602SOL    HW1 4625   0.925   3.965   3.634 -1.6131  1.1986  0.0490
 1602SOL    HW2 4626   0.892   3.932   3.478  2.8051 -0.9185 -0.6005
 1603SOL     OW 4627   2.003   2.496   2.005  0.1570 -0.2948 -0.3709
 1603SOL    HW1 4628   1.952   2.427   1.954 -1.1245 -0.8284  1.5302
 1603SOL    HW2 4629   2.100   2.470   2.009 -0.1707 -1.5487 -0.3762
 1604SOL     OW 4630   0.715   3.670   0.747  0.3124  0.0897  0.1794
 1604SOL    HW1 4631   0.765   3.726   0.813 -1.7823 -0.0364  1.9855
 1604SOL    HW2 4632   0.705   3.577   0.783 -4.3084  0.9427  1.8595
 1605SOL     OW 4633   1.856   3.364   1.402  0.2967 -0.3722  0.5113
 1605SOL    HW1 4634   1.889   3.428   1.471 -0.4604 -0.3891  0.9027
 1605SOL    HW2 4635   1.904   3.276   1.413  1.4701  0.1653 -0.1487
 1606SOL     OW 4636   0.584   0.080   0.874  0.2301  0.0570  0.0799
 1606SOL    HW1 4637   0.524   0.026   0.933  1.5130 -1.6708 -0.1091
 1606SOL    HW2 4638   0.572   0.177   0.894 -0.0570 -0.4154  2.5178
 1607SOL     OW 4639   1.243   1.088   0.450 -0.3070  0.0225 -0.1237
 1607SOL    HW1 4640   1.305   1.088   0.529  0.1304  1.9427 -0.4220
 1607SOL    HW2 4641   1.259   1.006   0.395 -1.6496 -2.1695  2.5091
 1608SOL     OW 4642   2.512   0.733   0.161 -0.2331  0.1792  0.5274
 1608SOL    HW1 4643   2.434   0.761   0.217 -0.8381  0.3645 -0.3704
 1608SOL    HW2 4644   2.562   0.814   0.130 -0.2859  0.1196  0.2788
 1609SOL     OW 4645   2.080   4.652   3.022 -0.1113 -0.1264  0.3452
 1609SOL    HW1 4646   2.027   4.634   2.940  0.7191 -0.5656 -0.1109
 1609SOL    HW2 4647   2.164   4.596   3.021  0.4252  0.6417  0.9748
 1610SOL     OW 4648   1.815   4.467   3.807  0.1573  0.7762 -0.7419
 1610SOL    HW1 4649   1.866   4.507   3.732  0.8281  1.1352 -0.1074
 1610SOL    HW2 4650   1.875   4.409   3.862 -0.0531  1.3410  0.1102
 1611SOL     OW 4651   2.454   1.329   2.122  0.0143 -0.0670  0.1164
 1611SOL    HW1 4652   2.395   1.410   2.132  0.2651 -0.0724  1.8380
 1611SOL    HW2 4653   2.480   1.320   2.026 -0.0085  1.9157 -0.1311
 1612SOL     OW 4654   1.399   4.276   4.632 -0.1210  0.1979  0.0806
 1612SOL    HW1 4655   1.436   4.367   4.614 -1.0185  0.4717 -0.4644
 1612SOL    HW2 4656   1.413   4.252   4.728  1.2779  0.3588 -0.0646
 1613SOL     OW 4657   1.965   0.969   0.332 -0.1907 -0.3010 -0.1539
 1613SOL    HW1 4658   1.887   1.032   0.328 -0.5489 -0.6357  1.0883
 1613SOL    HW2 4659   1.942   0.885   0.283  0.0116  0.2370 -1.1868
 1614SOL     OW 4660   1.562   4.505   3.264 -0.2675  0.0938 -0.1980
 1614SOL    HW1 4661   1.489   4.563   3.227  0.6321  0.9794 -0.6152
 1614SOL    HW2 4662   1.615   4.557   3.331 -0.2885 -0.6911  0.4472
 1615SOL     OW 4663   3.178   2.884   0.858  0.1300 -0.3570  0.5990
 1615SOL    HW1 4664   3.103   2.821   0.839 -0.7908  0.6363  0.8387
 1615SOL    HW2 4665   3.265   2.838   0.840 -0.5369 -1.3630 -0.1932
 1616SOL     OW 4666   0.836   2.982   0.196 -0.1189  0.2529  0.4841
 1616SOL    HW1 4667   0.786   2.942   0.119  1.8755 -0.8891 -0.2714
 1616SOL    HW2 4668   0.822   3.081   0.195 -0.5801  0.2087 -1.0191
 1617SOL     OW 4669   1.019   4.191   4.679  0.6173 -0.0647 -0.1585
 1617SOL    HW1 4670   1.051   4.230   4.766  0.3619  0.7293 -0.4089
 1617SOL    HW2 4671   0.931   4.231   4.656  1.0294  0.2881 -1.1581
 1618SOL     OW 4672   2.886   2.693   3.115 -0.4676  0.6550  0.1082
 1618SOL    HW1 4673   2.971   2.711   3.067 -0.0051  1.2841  1.1229
 1618SOL    HW2 4674   2.886   2.742   3.203 -0.3697 -2.0694  1.7514
 1619SOL     OW 4675   5.017   2.311   4.116 -0.2787  0.0502  0.1272
 1619SOL    HW1 4676   5.072   2.334   4.196  1.8967 -0.0026 -1.2439
 1619SOL    HW2 4677   4.988   2.215   4.122 -1.0104  0.3263  1.2903
 1620SOL     OW 4678   2.868   4.140   4.024 -0.2628 -0.0171  0.5745
 1620SOL    HW1 4679   2.817   4.207   3.970 -1.2829  0.3458  1.9247
 1620SOL    HW2 4680   2.934   4.188   4.082  1.6536 -0.4798 -1.1296
 1621SOL     OW 4681   0.369   3.129   3.350  0.5620 -0.7825  0.3522
 1621SOL    HW1 4682   0.289   3.161   3.299  0.6190 -0.7093  0.3090
 1621SOL    HW2 4683   0.359   3.031   3.369 -0.1231 -0.5111  1.4287
 1622SOL     OW 4684   2.320   1.979   3.724 -0.7563 -0.6362  0.7433
 1622SOL    HW1 4685   2.292   2.071   3.696 -1.4687 -1.2704 -0.7264
 1622SOL    HW2 4686   2.400   1.986   3.784 -0.9193  0.9433  0.8300
 1623SOL     OW 4687   4.376   0.420   2.890  0.7332  0.7140  0.4271
 1623SOL    HW1 4688   4.277   0.434   2.888  0.2116 -2.2399  0.3264
 1623SOL    HW2 4689   4.420   0.488   2.832 -1.5090  0.4637 -1.7590
 1624SOL     OW 4690   2.221   4.728   4.027  0.0268 -0.4948 -0.3622
 1624SOL    HW1 4691   2.194   4.824   4.036  0.0738 -0.5835  0.8848
 1624SOL    HW2 4692   2.320   4.721   4.038  0.0849 -0.6244 -0.9802
 1625SOL     OW 4693   4.691   1.074   2.276  0.4256  0.1759 -0.0037
 1625SOL    HW1 4694   4.610   1.029   2.314  0.2863 -0.0556 -0.5661
 1625SOL    HW2 4695   4.763   1.007   2.261  1.0474  0.5209  1.3192
 1626SOL     OW 4696   2.908   0.300   3.915  0.2148 -0.5966 -0.5047
 1626SOL    HW1 4697   2.889   0.219   3.859  1.4843 -2.1620  1.2260
 1626SOL    HW2 4698   2.902   0.276   4.012  1.5387  1.1666  0.0609
 1627SOL     OW 4699   0.302   4.118   3.962  0.6194 -0.2966  0.3734
 1627SOL    HW1 4700   0.323   4.044   3.899  0.9875  0.4322 -0.3772
 1627SOL    HW2 4701   0.318   4.088   4.056  0.1432 -1.3673  0.1239
 1628SOL     OW 4702   3.856   3.775   3.840  0.1968  0.4553 -0.1192
 1628SOL    HW1 4703   3.937   3.718   3.831  0.2916  0.2267  1.7673
 1628SOL    HW2 4704   3.787   3.746   3.774 -0.3808 -3.0006  1.7951
 1629SOL     OW 4705   0.328   4.650   3.371  0.0519 -0.0625 -0.1320
 1629SOL    HW1 4706   0.422   4.673   3.346 -0.8403 -0.0678 -4.2219
 1629SOL    HW2 4707   0.309   4.555   3.345 -1.7791  0.7632 -2.0551
 1630SOL     OW 4708   1.835   4.834   4.845 -0.2481  0.2475  0.2608
 1630SOL    HW1 4709   1.864   4.915   4.795  0.4911  0.6270  1.2673
 1630SOL    HW2 4710   1.867   4.752   4.799  0.4861  0.5943  0.1518
 1631SOL     OW 4711   0.247   2.061   2.531 -0.5674 -0.1948 -0.0661
 1631SOL    HW1 4712   0.210   2.076   2.623 -1.1841  0.2266 -0.3735
 1631SOL    HW2 4713   0.178   2.016   2.475 -0.3545 -0.0386 -0.4528
 1632SOL     OW 4714   2.183   2.954   4.434  0.2804 -0.7524 -0.1144
 1632SOL    HW1 4715   2.214   2.882   4.496 -0.0698 -0.6629  0.1714
 1632SOL    HW2 4716   2.162   2.915   4.345  0.5171 -0.9291 -0.0940
 1633SOL     OW 4717   4.250   1.977   2.930  0.6677  0.7748 -0.0512
 1633SOL    HW1 4718   4.250   2.038   3.010  0.0615  1.7303 -0.7621
 1633SOL    HW2 4719   4.169   1.919   2.933 -0.1244  1.8122 -0.6927
 1634SOL     OW 4720   0.958   5.024   1.241  0.0206  0.0141  0.4317
 1634SOL    HW1 4721   1.029   5.022   1.310 -0.8233 -2.0405  1.3183
 1634SOL    HW2 4722   0.908   4.938   1.241 -1.4718  0.7929 -1.2256
 1635SOL     OW 4723   1.722   0.507   1.400  0.4246 -0.0547  0.4034
 1635SOL    HW1 4724   1.745   0.470   1.490  2.1662 -1.3843 -0.5198
 1635SOL    HW2 4725   1.623   0.506   1.387  0.2648 -1.9691  1.4539
 1636SOL     OW 4726   1.982   4.475   1.902 -0.1574  0.0516 -0.2400
 1636SOL    HW1 4727   1.914   4.494   1.973  1.1266 -0.2112  1.1128
 1636SOL    HW2 4728   1.935   4.451   1.817 -1.7522 -1.0218  0.8846
 1637SOL     OW 4729   0.240   2.044   1.427  0.1500 -0.1817  0.1165
 1637SOL    HW1 4730   0.264   2.121   1.368 -0.7399  0.2281  0.2709
 1637SOL    HW2 4731   0.153   2.006   1.398 -0.6914  0.5084  1.6060
 1638SOL     OW 4732   0.103   2.670   4.033 -0.3165 -0.0789  0.1478
 1638SOL    HW1 4733   0.129   2.611   3.957 -0.7377 -0.3898  0.2404
 1638SOL    HW2 4734   0.143   2.635   4.117 -0.2966 -0.0476  0.1512
 1639SOL     OW 4735   4.492   0.182   3.371  0.4422  0.0323 -0.4927
 1639SOL    HW1 4736   4.474   0.108   3.306  1.2716  0.7509 -1.5697
 1639SOL    HW2 4737   4.422   0.252   3.362 -0.4976 -0.6931  0.7138
 1640SOL     OW 4738   3.006   0.148   4.499 -0.3785  0.0118 -0.1004
 1640SOL    HW1 4739   2.911   0.119   4.488 -0.1157 -0.9126 -0.0050
 1640SOL    HW2 4740   3.012   0.216   4.572 -1.1168  0.9019 -0.8500
 1641SOL     OW 4741   2.096   0.637   2.309 -0.0803  0.1235  0.2155
 1641SOL    HW1 4742   2.005   0.604   2.336 -0.8711  2.1318  0.1414
 1641SOL    HW2 4743   2.106   0.733   2.335  1.3136  0.4939 -1.4901
 1642SOL     OW 4744   0.627   4.334   2.080 -0.0106 -0.8409 -0.1317
 1642SOL    HW1 4745   0.684   4.355   2.000 -1.0278 -2.9603 -1.4910
 1642SOL    HW2 4746   0.532   4.356   2.059 -0.0753  0.3287  1.2282
 1643SOL     OW 4747   2.371   3.573   3.997  0.4691  0.0997 -0.5109
 1643SOL    HW1 4748   2.322   3.606   4.078 -1.7033 -1.3202 -1.1548
 1643SOL    HW2 4749   2.306   3.531   3.933  2.3747 -0.5609 -2.1265
 1644SOL     OW 4750   3.569   3.716   1.977 -0.4477 -0.2358 -0.7896
 1644SOL    HW1 4751   3.490   3.734   2.036 -0.8262 -1.0311 -1.0327
 1644SOL    HW2 4752   3.640   3.784   1.993  0.3479 -1.6293  2.1182
 1645SOL     OW 4753   0.936   3.279   3.190  0.1650 -0.0195 -0.5960
 1645SOL    HW1 4754   0.939   3.180   3.178 -0.8812 -0.2486  0.7594
 1645SOL    HW2 4755   1.029   3.313   3.207  0.3935 -0.9618  0.1286
 1646SOL     OW 4756   3.403   4.603   4.494 -0.5358  0.9397  0.6692
 1646SOL    HW1 4757   3.306   4.623   4.499 -0.7154  0.4664 -0.5499
 1646SOL    HW2 4758   3.445   4.616   4.584 -1.4876  2.2884  0.9409
 1647SOL     OW 4759   1.076   0.680   1.254 -0.6284 -0.5851  0.0265
 1647SOL    HW1 4760   1.034   0.630   1.179 -0.3336 -1.5887  0.5165
 1647SOL    HW2 4761   1.086   0.620   1.333  2.8892 -0.8497 -0.4628
 1648SOL     OW 4762   1.788   3.273   0.076  0.1500 -0.2900  0.1879
 1648SOL    HW1 4763   1.823   3.203   0.138 -0.2509  0.7201  1.6102
 1648SOL    HW2 4764   1.817   3.253  -0.017  0.5470 -2.0037  0.6452
 1649SOL     OW 4765   0.340   3.237   1.921 -0.1798 -0.0803 -0.1476
 1649SOL    HW1 4766   0.355   3.325   1.966  0.6271  0.1916 -0.9221
 1649SOL    HW2 4767   0.335   3.165   1.990  2.0559  0.1816  0.3422
 1650SOL     OW 4768   3.627   1.012   1.770 -0.2874  0.4143  0.6611
 1650SOL    HW1 4769   3.670   0.973   1.689 -0.4818  1.3172  0.1180
 1650SOL    HW2 4770   3.698   1.043   1.833 -0.0929  2.0578 -0.3088
 1651SOL     OW 4771   0.371   1.155   0.698  0.0693  0.2354  0.1539
 1651SOL    HW1 4772   0.427   1.218   0.750  0.4621 -0.6538  0.8337
 1651SOL    HW2 4773   0.310   1.105   0.759 -1.4278  1.1053 -0.5542
 1652SOL     OW 4774   1.147   2.224   1.622  0.0877  0.0086  0.4277
 1652SOL    HW1 4775   1.096   2.310   1.616  0.7135  0.5364  2.0493
 1652SOL    HW2 4776   1.195   2.207   1.536  1.0061  1.9623  0.4981
 1653SOL     OW 4777   3.284   2.101   1.849 -0.5961  0.4067 -0.3051
 1653SOL    HW1 4778   3.274   2.006   1.878 -0.1297  0.5111  0.2248
 1653SOL    HW2 4779   3.281   2.161   1.930 -3.5014  1.0946 -0.8004
 1654SOL     OW 4780   0.661   3.608   0.118 -0.1795 -0.1692 -0.2579
 1654SOL    HW1 4781   0.570   3.590   0.080  0.1553  0.3663 -1.3606
 1654SOL    HW2 4782   0.676   3.551   0.199  0.1585 -3.5391 -2.4968
 1655SOL     OW 4783   0.276   3.302   1.387  0.3439 -0.7283 -0.4601
 1655SOL    HW1 4784   0.211   3.226   1.381  1.3387 -1.8200  1.4675
 1655SOL    HW2 4785   0.233   3.379   1.434 -0.0894 -0.7645 -0.7870
 1656SOL     OW 4786   4.940   3.427   3.582  0.1483 -0.2500  0.6640
 1656SOL    HW1 4787   5.027   3.463   3.548 -0.2804  1.1593  0.9624
 1656SOL    HW2 4788   4.866   3.455   3.520 -0.3429  0.3456  1.4930
 1657SOL     OW 4789   4.476   4.058   2.325 -0.5004 -0.0780 -1.0481
 1657SOL    HW1 4790   4.447   3.963   2.335 -1.7526  0.2974 -0.9918
 1657SOL    HW2 4791   4.450   4.110   2.406  1.1097  0.1074 -0.6160
 1658SOL     OW 4792   4.030   2.676   1.505 -0.1643  0.7864 -0.3837
 1658SOL    HW1 4793   4.091   2.752   1.526  0.1883  0.4436 -0.1656
 1658SOL    HW2 4794   3.976   2.698   1.424 -1.8254  2.3140  1.0390
 1659SOL     OW 4795   0.741   3.934   2.324  0.5878 -0.1343 -0.1540
 1659SOL    HW1 4796   0.689   4.012   2.360 -1.0623 -1.5366  0.6523
 1659SOL    HW2 4797   0.776   3.957   2.233  0.2928  1.5887  0.1274
 1660SOL     OW 4798   3.402   0.076   1.062 -0.1808 -0.4009  0.6908
 1660SOL    HW1 4799   3.355   0.154   1.103 -1.1202 -1.3362  1.4543
 1660SOL    HW2 4800   3.485   0.056   1.114  0.5538  0.6236 -0.0486
 1661SOL     OW 4801   1.685   2.227   2.008  0.1591  0.7266  0.1343
 1661SOL    HW1 4802   1.750   2.282   1.956  1.1735  1.1564  1.7746
 1661SOL    HW2 4803   1.605   2.283   2.030 -1.6595 -0.2549 -3.2659
 1662SOL     OW 4804   1.798   3.867   4.019 -0.2512  0.2567  0.1682
 1662SOL    HW1 4805   1.868   3.882   3.948  0.2878 -0.1536  0.6013
 1662SOL    HW2 4806   1.757   3.776   4.006  0.3132 -0.0889  0.7686
 1663SOL     OW 4807   2.285   3.940   3.260  0.4147 -0.4557  0.0677
 1663SOL    HW1 4808   2.316   3.853   3.298 -2.0723 -1.0105  1.0291
 1663SOL    HW2 4809   2.298   3.940   3.161 -0.1004 -2.2206 -0.0273
 1664SOL     OW 4810   4.051   4.878   3.000  0.4260 -0.1079  0.3977
 1664SOL    HW1 4811   3.998   4.823   3.064  0.3178 -0.3282  0.1190
 1664SOL    HW2 4812   4.060   4.971   3.036  0.0076 -0.1189  0.5349
 1665SOL     OW 4813   2.641   0.972   4.823  0.3398  0.2881 -0.5115
 1665SOL    HW1 4814   2.568   0.907   4.802 -0.6369  1.2795 -0.2620
 1665SOL    HW2 4815   2.662   1.027   4.742 -2.4325  3.1281  0.5144
 1666SOL     OW 4816   2.109   3.772   2.216  0.5994 -0.5683  0.7091
 1666SOL    HW1 4817   2.062   3.749   2.131  1.9753 -2.7268  0.4677
 1666SOL    HW2 4818   2.192   3.824   2.195  0.9530 -1.1236  0.7032
 1667SOL     OW 4819   2.816   4.071   3.028  0.0422  0.0752  0.6747
 1667SOL    HW1 4820   2.782   4.133   2.957  0.2284  0.4572  0.9210
 1667SOL    HW2 4821   2.916   4.074   3.030  0.1450 -1.3030 -0.2843
 1668SOL     OW 4822   2.178   2.152   0.111 -0.3880 -0.0891 -0.0337
 1668SOL    HW1 4823   2.120   2.074   0.087 -0.2453  0.4663 -2.4502
 1668SOL    HW2 4824   2.268   2.140   0.067 -0.3897  1.4585 -0.4951
 1669SOL     OW 4825   1.953   2.622   2.536  0.4156  0.7114 -0.1004
 1669SOL    HW1 4826   1.935   2.645   2.440 -1.1907 -2.6703 -0.7745
 1669SOL    HW2 4827   2.045   2.584   2.545 -0.0086 -0.5198 -0.7049
 1670SOL     OW 4828   3.350   2.894   3.956  0.3166  0.5637 -0.3362
 1670SOL    HW1 4829   3.296   2.817   3.991  1.5199 -1.0184 -1.8077
 1670SOL    HW2 4830   3.397   2.938   4.033 -0.3331 -0.1967  0.5333
 1671SOL     OW 4831   4.834   2.488   2.419 -0.0463 -0.7117 -0.2552
 1671SOL    HW1 4832   4.806   2.559   2.483 -1.5291 -2.4877  1.1863
 1671SOL    HW2 4833   4.801   2.511   2.327  0.5003  0.9742 -0.0588
 1672SOL     OW 4834   4.874   1.028   3.582 -0.1359  0.1331 -0.3623
 1672SOL    HW1 4835   4.934   0.965   3.533  0.6319  0.8304 -0.3266
 1672SOL    HW2 4836   4.799   0.976   3.624 -0.1576 -0.6092 -1.2887
 1673SOL     OW 4837   4.769   3.101   4.771  0.2740  0.4690 -0.6794
 1673SOL    HW1 4838   4.779   3.003   4.782  0.7543  0.4896 -0.8878
 1673SOL    HW2 4839   4.747   3.122   4.675 -0.1863  0.5377 -0.5581
 1674SOL     OW 4840   1.774   1.112   4.438 -0.0702 -0.8621 -0.4102
 1674SOL    HW1 4841   1.853   1.172   4.452 -0.3676 -0.8100  1.1846
 1674SOL    HW2 4842   1.690   1.160   4.466 -0.2507 -2.1875  1.5049
 1675SOL     OW 4843   0.314   1.746   1.207 -0.0892 -0.7746 -0.2469
 1675SOL    HW1 4844   0.247   1.814   1.177 -0.4173 -0.8555  0.2988
 1675SOL    HW2 4845   0.341   1.764   1.301  1.0515 -0.4342 -0.6158
 1676SOL     OW 4846   2.058   3.786   1.360 -0.3644 -0.2136  0.0024
 1676SOL    HW1 4847   2.061   3.689   1.337 -0.5842 -0.3439  0.5195
 1676SOL    HW2 4848   1.976   3.805   1.414 -0.0473  0.1634  0.3575
 1677SOL     OW 4849   4.298   4.298   0.404 -0.4421 -0.1153  0.0136
 1677SOL    HW1 4850   4.289   4.199   0.392 -2.1894  0.1616 -1.4367
 1677SOL    HW2 4851   4.380   4.318   0.456  0.3253 -2.2938 -0.2604
 1678SOL     OW 4852   4.418   3.456   0.984 -0.2305 -0.1235 -0.0478
 1678SOL    HW1 4853   4.517   3.445   0.975 -0.3861 -0.4564 -1.6526
 1678SOL    HW2 4854   4.388   3.536   0.931 -1.0781 -1.3879 -1.5613
 1679SOL     OW 4855   3.911   1.909   3.610  0.5251 -0.5585  0.6346
 1679SOL    HW1 4856   3.980   1.962   3.660  0.8380 -1.0284  0.7102
 1679SOL    HW2 4857   3.887   1.827   3.662  1.5863 -1.5752 -0.4056
 1680SOL     OW 4858   3.635   4.018   1.230  0.1570  0.1224  0.2375
 1680SOL    HW1 4859   3.618   3.928   1.269  1.8762  0.2581  1.3538
 1680SOL    HW2 4860   3.580   4.087   1.279 -1.8607 -0.3529 -1.1965
 1681SOL     OW 4861   1.808   1.511   2.445 -0.0661  0.3236 -0.2120
 1681SOL    HW1 4862   1.764   1.482   2.531 -1.0896 -1.4470 -1.2809
 1681SOL    HW2 4863   1.897   1.468   2.437  0.0238  0.4777 -0.0592
 1682SOL     OW 4864   2.255   4.682   4.441  0.6218 -0.3689  0.3583
 1682SOL    HW1 4865   2.241   4.632   4.527  2.4979 -1.3460  0.1621
 1682SOL    HW2 4866   2.344   4.656   4.402  0.8984  1.8672 -0.6509
 1683SOL     OW 4867   4.960   0.100   2.760  0.1986  0.2647  0.0010
 1683SOL    HW1 4868   4.992   0.073   2.850 -0.4449  0.6787  0.3657
 1683SOL    HW2 4869   4.987   0.195   2.742 -0.1229  0.3522 -0.0220
 1684SOL     OW 4870   1.433   4.146   2.072  0.0866 -0.1211  1.0255
 1684SOL    HW1 4871   1.496   4.216   2.038  0.5090 -0.5804  0.8660
 1684SOL    HW2 4872   1.484   4.071   2.113 -0.3624 -0.3831  1.1112
 1685SOL     OW 4873   2.021   3.660   1.997  0.7080 -0.1103  0.0734
 1685SOL    HW1 4874   2.104   3.620   1.960 -0.8379 -2.3376 -1.2266
 1685SOL    HW2 4875   1.941   3.611   1.961 -1.1760  1.7258  1.4953
 1686SOL     OW 4876   3.052   4.040   2.101 -0.6867 -0.0481 -0.4428
 1686SOL    HW1 4877   2.980   4.066   2.166 -0.3030 -1.5065  0.6284
 1686SOL    HW2 4878   3.110   3.970   2.142  1.8084  1.5448 -0.9958
 1687SOL     OW 4879   0.133   2.914   3.155  0.1698 -0.4575  0.0438
 1687SOL    HW1 4880   0.193   2.841   3.122  0.9455  0.1566  0.0744
 1687SOL    HW2 4881   0.063   2.933   3.085 -0.7030 -1.9324  0.4663
 1688SOL     OW 4882   4.698   0.205   3.100 -0.0523 -0.1460 -0.0009
 1688SOL    HW1 4883   4.695   0.249   3.190  1.3616 -2.0909  1.0615
 1688SOL    HW2 4884   4.754   0.260   3.038 -0.5227  0.8917  0.4567
 1689SOL     OW 4885   3.982   1.732   4.758  1.3971  0.1188  0.4930
 1689SOL    HW1 4886   3.900   1.759   4.709  0.6816 -2.1081  0.3451
 1689SOL    HW2 4887   3.988   1.784   4.844 -0.3738  0.0705  0.6876
 1690SOL     OW 4888   3.237   0.260   1.190  0.8451  0.1039 -0.4380
 1690SOL    HW1 4889   3.290   0.222   1.266  0.0002  0.6021  0.4185
 1690SOL    HW2 4890   3.230   0.359   1.200  0.4464  0.1389 -0.9969
 1691SOL     OW 4891   2.687   4.940   0.689  0.1641  0.0166  0.2595
 1691SOL    HW1 4892   2.664   4.953   0.786  0.1473 -1.7602  0.5323
 1691SOL    HW2 4893   2.616   4.884   0.646  0.0189  1.0477 -0.8745
 1692SOL     OW 4894   2.535   3.234   1.762 -0.0522  0.0604 -0.1550
 1692SOL    HW1 4895   2.489   3.247   1.675 -1.2298  0.5594  0.5183
 1692SOL    HW2 4896   2.547   3.323   1.807  1.7928 -0.0185 -0.3980
 1693SOL     OW 4897   0.211   3.641   2.138  0.3052 -0.3723  0.4205
 1693SOL    HW1 4898   0.141   3.710   2.121 -0.1330 -0.5224  1.5766
 1693SOL    HW2 4899   0.197   3.600   2.228  1.0155 -1.4276  0.0693
 1694SOL     OW 4900   3.026   0.013   4.247  0.1909 -0.2491  0.0231
 1694SOL    HW1 4901   3.064  -0.078   4.261  0.6721 -0.0950 -0.2801
 1694SOL    HW2 4902   3.064   0.076   4.315  2.8105  0.5851 -2.0314
 1695SOL     OW 4903   1.304   4.169   1.657  0.1008  0.3366 -0.3676
 1695SOL    HW1 4904   1.257   4.237   1.600 -0.8490 -0.1446 -0.1772
 1695SOL    HW2 4905   1.334   4.093   1.599 -2.6935 -1.1658 -0.0276
 1696SOL     OW 4906   1.813   4.846   1.699 -0.9496  0.1319  0.5527
 1696SOL    HW1 4907   1.863   4.917   1.649  1.6463 -1.2817  1.0009
 1696SOL    HW2 4908   1.805   4.872   1.795 -2.2086  0.9019  0.2646
 1697SOL     OW 4909   2.026   1.631   1.174 -0.0202 -0.4681 -0.5027
 1697SOL    HW1 4910   2.076   1.624   1.260  2.0032 -1.1852 -1.6348
 1697SOL    HW2 4911   1.936   1.671   1.189 -0.4569 -2.2228  2.1792
 1698SOL     OW 4912   1.231   0.249   4.189  0.4746 -0.4914  0.4438
 1698SOL    HW1 4913   1.216   0.162   4.141 -0.2826  0.8699 -1.9998
 1698SOL    HW2 4914   1.142   0.287   4.216  0.3826  1.2990 -2.0527
 1699SOL     OW 4915   0.842   0.938   0.240  0.3973 -0.1208  0.0083
 1699SOL    HW1 4916   0.907   0.915   0.167 -0.0066  0.6848 -0.6255
 1699SOL    HW2 4917   0.778   1.008   0.206 -0.2345 -0.2517  0.9131
 1700SOL     OW 4918   4.983   1.158   0.662  0.6065 -0.3314 -0.3136
 1700SOL    HW1 4919   4.937   1.221   0.599  0.1997  0.3127  0.5970
 1700SOL    HW2 4920   5.049   1.209   0.717  1.4950 -1.0239 -0.7186
 1701SOL     OW 4921   0.127   1.471   2.276 -0.1450  0.1314 -0.1591
 1701SOL    HW1 4922   0.177   1.553   2.303 -0.1003  0.1382 -0.2622
 1701SOL    HW2 4923   0.174   1.390   2.313 -0.3895  0.1738  0.2442
 1702SOL     OW 4924   1.005   0.058   3.385 -0.6016  0.0677 -0.8176
 1702SOL    HW1 4925   1.040   0.072   3.292 -0.7972 -1.0394 -1.0690
 1702SOL    HW2 4926   1.077   0.081   3.451  0.3273 -1.2993 -1.3071
 1703SOL     OW 4927   2.959   0.205   3.479  0.0490  0.3745  0.3874
 1703SOL    HW1 4928   2.930   0.115   3.511 -2.7810  1.3102  0.8034
 1703SOL    HW2 4929   2.966   0.267   3.557  0.5745  0.8723 -0.0437
 1704SOL     OW 4930   2.224   0.616   4.364 -0.4748 -0.0020  0.1717
 1704SOL    HW1 4931   2.218   0.607   4.265 -2.2231 -0.4928  0.2958
 1704SOL    HW2 4932   2.287   0.691   4.387 -1.5972  1.4641 -1.3604
 1705SOL     OW 4933   0.909   4.282   0.987 -0.6102 -0.2400 -0.0565
 1705SOL    HW1 4934   0.921   4.362   0.929 -0.1128 -0.5178 -0.3379
 1705SOL    HW2 4935   0.996   4.235   0.998 -0.7820 -0.4182  0.5831
 1706SOL     OW 4936   2.678   4.592   1.867  0.0208 -0.2797  0.0205
 1706SOL    HW1 4937   2.593   4.544   1.846 -1.1464  1.5942  0.1712
 1706SOL    HW2 4938   2.687   4.672   1.808 -0.0094  1.3898  2.1326
 1707SOL     OW 4939   3.704   0.918   4.743 -0.0384 -0.2259 -0.1404
 1707SOL    HW1 4940   3.682   0.981   4.817 -0.0733  0.1889 -0.5021
 1707SOL    HW2 4941   3.706   0.967   4.656 -0.9284 -0.8787 -0.5446
 1708SOL     OW 4942   0.543   2.609   0.722 -0.1594  0.7949 -0.1228
 1708SOL    HW1 4943   0.538   2.590   0.624  1.8402  2.4375 -0.6223
 1708SOL    HW2 4944   0.537   2.708   0.737 -0.7265  0.5484  1.4540
 1709SOL     OW 4945   0.402   3.974   2.715 -0.0648  0.3737 -0.0166
 1709SOL    HW1 4946   0.465   3.904   2.749 -1.7527 -1.7887 -1.0593
 1709SOL    HW2 4947   0.399   4.050   2.779  1.9151 -0.4338  1.1413
 1710SOL     OW 4948   3.558   4.384   3.495 -0.0785 -0.0298 -0.1791
 1710SOL    HW1 4949   3.522   4.369   3.403 -2.0550  3.4852 -0.1556
 1710SOL    HW2 4950   3.483   4.380   3.562  1.0322 -0.7550  1.0841
 1711SOL     OW 4951   1.130   1.281   0.255  0.1328  0.0719 -0.3929
 1711SOL    HW1 4952   1.183   1.233   0.185  2.7622  1.6400  0.3374
 1711SOL    HW2 4953   1.153   1.244   0.345  0.4378  1.1186 -0.0209
 1712SOL     OW 4954   2.460   4.310   3.558 -0.0455  0.4022  0.1077
 1712SOL    HW1 4955   2.551   4.326   3.597  0.1341 -0.9967  0.3380
 1712SOL    HW2 4956   2.390   4.338   3.623  0.2217  1.3173  0.0048
 1713SOL     OW 4957   5.024   1.135   4.719 -0.6132  0.0782  0.7910
 1713SOL    HW1 4958   5.048   1.038   4.723  0.4019  0.3234  1.1886
 1713SOL    HW2 4959   4.974   1.160   4.802 -0.6403 -0.0541  0.8143
 1714SOL     OW 4960   3.363   4.084   1.707  0.2805  0.0418 -0.2531
 1714SOL    HW1 4961   3.439   4.019   1.708  0.2962  0.0615  0.0386
 1714SOL    HW2 4962   3.278   4.035   1.726  0.2170  0.0154 -0.6064
 1715SOL     OW 4963   1.698   4.935   1.218  0.0235 -0.0285  0.2078
 1715SOL    HW1 4964   1.624   4.879   1.182  0.2991  0.5210 -1.2627
 1715SOL    HW2 4965   1.732   4.895   1.303 -0.7263 -1.2910 -0.0690
 1716SOL     OW 4966   3.632   1.136   2.368 -0.0839 -0.4797  0.6130
 1716SOL    HW1 4967   3.577   1.137   2.451 -0.1402  0.0223  0.5721
 1716SOL    HW2 4968   3.648   1.041   2.340  1.1817 -0.7062  2.0090
 1717SOL     OW 4969   3.133   1.737   2.344 -0.2290 -0.2023 -0.0089
 1717SOL    HW1 4970   3.198   1.661   2.349 -1.7319 -1.5142  0.5764
 1717SOL    HW2 4971   3.040   1.701   2.337 -0.9659  1.6099 -0.2435
 1718SOL     OW 4972   1.834   0.229   2.434 -0.1040 -0.2220 -0.3551
 1718SOL    HW1 4973   1.736   0.214   2.423  0.0367 -1.1633 -0.4587
 1718SOL    HW2 4974   1.859   0.318   2.397 -1.0732  0.4551  0.5436
 1719SOL     OW 4975   2.923   2.869   3.677  0.0711  0.1059 -0.0604
 1719SOL    HW1 4976   2.946   2.958   3.637  1.6087  0.0330  0.5858
 1719SOL    HW2 4977   3.002   2.808   3.669  0.3666 -0.0130  2.7773
 1720SOL     OW 4978   0.329   1.626   1.729 -0.4314 -0.5654  0.0820
 1720SOL    HW1 4979   0.234   1.598   1.737 -1.0644  1.0969 -1.1312
 1720SOL    HW2 4980   0.345   1.707   1.786 -0.0616 -0.1335 -0.6133
 1721SOL     OW 4981   2.857   4.876   0.502  0.1281  0.0269  0.8539
 1721SOL    HW1 4982   2.884   4.790   0.545 -1.3262 -0.6951  0.3929
 1721SOL    HW2 4983   2.793   4.925   0.562  0.8308  0.7347  1.0468
 1722SOL     OW 4984   3.083   0.832   2.074  0.0991 -0.1060  0.2647
 1722SOL    HW1 4985   3.046   0.784   2.154 -1.5535 -0.3177 -0.5874
 1722SOL    HW2 4986   3.019   0.825   1.998  1.1165  1.0755 -0.7479
 1723SOL     OW 4987   2.732   2.107   2.949 -0.0043  0.5325 -0.8612
 1723SOL    HW1 4988   2.712   2.093   2.852  0.1217 -0.3852 -0.7614
 1723SOL    HW2 4989   2.706   2.025   3.001  2.2790 -0.0194 -0.4843
 1724SOL     OW 4990   4.702   2.111   4.293 -0.0789 -0.7246  0.1106
 1724SOL    HW1 4991   4.655   2.147   4.212 -1.6508  1.9485  2.0386
 1724SOL    HW2 4992   4.640   2.055   4.346 -0.0515  0.0093  0.9441
 1725SOL     OW 4993   3.698   4.272   4.555 -0.4858 -0.1257  0.2521
 1725SOL    HW1 4994   3.631   4.306   4.489 -0.8545 -2.9875 -0.9796
 1725SOL    HW2 4995   3.680   4.176   4.574  2.1467 -0.4696  1.3859
 1726SOL     OW 4996   1.560   1.172   1.978  0.3651  0.4245  0.0745
 1726SOL    HW1 4997   1.518   1.262   1.982 -0.9524 -0.1480 -0.3066
 1726SOL    HW2 4998   1.498   1.104   2.019  0.5415 -0.5688 -1.2434
 1727SOL     OW 4999   4.124   1.365   1.171 -0.8048  0.3044  0.0615
 1727SOL    HW1 5000   4.055   1.383   1.101 -0.0309  2.0721 -0.2957
 1727SOL    HW2 5001   4.201   1.427   1.159 -0.4571  0.3622  2.2309
 1728SOL     OW 5002   5.032   1.458   4.309  0.6563  0.0722 -0.3247
 1728SOL    HW1 5003   4.944   1.503   4.326  0.6641 -0.1527  0.3625
 1728SOL    HW2 5004   5.038   1.376   4.366  1.1936 -0.0713 -0.5846
 1729SOL     OW 5005   1.021   1.209   3.467 -0.2314  0.1898 -0.0418
 1729SOL    HW1 5006   1.064   1.168   3.387  0.5847  2.3698 -0.7957
 1729SOL    HW2 5007   0.935   1.252   3.441  0.2861  1.3565  0.1281
 1730SOL     OW 5008   1.707   0.158   3.366  0.1318 -0.5879  0.0237
 1730SOL    HW1 5009   1.744   0.247   3.391  2.7903 -1.2411 -1.1462
 1730SOL    HW2 5010   1.754   0.125   3.284 -1.2978 -2.7649 -0.0048
 1731SOL     OW 5011   3.169   1.052   1.284  0.0173  0.2786 -0.1498
 1731SOL    HW1 5012   3.218   0.969   1.257 -1.8989 -0.7289 -0.7805
 1731SOL    HW2 5013   3.071   1.031   1.293 -0.4604  2.3815  0.0963
 1732SOL     OW 5014   1.832   2.723   4.265  0.4145  0.0935  0.6410
 1732SOL    HW1 5015   1.850   2.785   4.341 -3.0691  0.3038  1.4602
 1732SOL    HW2 5016   1.866   2.763   4.180  1.6141  1.2840  1.6372
 1733SOL     OW 5017   2.932   0.943   1.326 -0.3247  0.4843  0.1398
 1733SOL    HW1 5018   2.934   0.855   1.374  2.3316 -0.4975 -1.5358
 1733SOL    HW2 5019   2.881   0.934   1.241 -3.6074  1.7922  1.7878
 1734SOL     OW 5020   2.391   0.114   1.653 -0.3732 -0.4096  0.3200
 1734SOL    HW1 5021   2.446   0.103   1.570 -2.4756 -1.1553 -1.0620
 1734SOL    HW2 5022   2.412   0.039   1.716 -2.8751 -3.4420 -2.1149
 1735SOL     OW 5023   1.703   3.929   2.613 -0.2996  0.4112  0.4279
 1735SOL    HW1 5024   1.645   3.854   2.582 -0.3034  1.0921 -1.3551
 1735SOL    HW2 5025   1.788   3.929   2.561  0.7670  0.2030  2.1170
 1736SOL     OW 5026   4.930   0.815   4.399  0.0485  0.0177 -0.8311
 1736SOL    HW1 5027   4.866   0.767   4.340  0.5158  0.2124 -1.5151
 1736SOL    HW2 5028   5.023   0.802   4.365  0.1658  1.6098 -1.2059
 1737SOL     OW 5029   4.369   0.847   0.173  0.1044 -0.1766  0.8088
 1737SOL    HW1 5030   4.371   0.896   0.260  0.5101  0.2510  0.5637
 1737SOL    HW2 5031   4.370   0.748   0.190  0.0461 -0.0952  1.2900
 1738SOL     OW 5032   0.008   0.194   4.727  0.6749  0.2124 -0.2392
 1738SOL    HW1 5033  -0.078   0.230   4.763  0.6817 -1.4115  1.5245
 1738SOL    HW2 5034   0.080   0.261   4.741  0.1858  0.5866  0.5487
 1739SOL     OW 5035   2.643   4.854   3.425  0.7270 -0.1768 -0.8231
 1739SOL    HW1 5036   2.663   4.789   3.350  0.6056  0.3973 -1.3590
 1739SOL    HW2 5037   2.567   4.819   3.479 -0.0828  0.0542 -1.7853
 1740SOL     OW 5038   2.813   1.908   3.345 -0.2817 -0.3889  0.4252
 1740SOL    HW1 5039   2.730   1.890   3.397  1.4062 -1.9397  2.7833
 1740SOL    HW2 5040   2.893   1.880   3.398  1.7972  0.9788 -1.7464
 1741SOL     OW 5041   1.503   4.301   1.413  0.6271  0.0008 -0.5745
 1741SOL    HW1 5042   1.537   4.366   1.344  0.6965 -1.0630 -1.5652
 1741SOL    HW2 5043   1.519   4.208   1.381 -0.9628 -0.5146  0.0836
 1742SOL     OW 5044   1.276   3.784   0.515 -0.4297  0.5191 -0.8316
 1742SOL    HW1 5045   1.327   3.784   0.600 -1.0242 -1.5545 -0.4261
 1742SOL    HW2 5046   1.211   3.861   0.515 -1.2909 -0.1376  1.1552
 1743SOL     OW 5047   0.994   2.072   0.104  0.3649  0.4007 -0.2525
 1743SOL    HW1 5048   0.920   2.120   0.152 -0.5697 -0.8512 -0.3983
 1743SOL    HW2 5049   1.066   2.049   0.169  0.1951  0.7998  0.0824
 1744SOL     OW 5050   4.421   1.226   4.122 -0.1965  0.0210  0.4370
 1744SOL    HW1 5051   4.389   1.170   4.198  1.6463 -1.1198  0.4212
 1744SOL    HW2 5052   4.370   1.202   4.039 -0.4710 -0.5283  0.7589
 1745SOL     OW 5053   0.561   0.067   3.842  0.2731  0.5337 -0.7240
 1745SOL    HW1 5054   0.649   0.019   3.848 -0.5482 -0.8168  1.1825
 1745SOL    HW2 5055   0.508   0.031   3.765  0.9609  0.6821 -1.2815
 1746SOL     OW 5056   1.258   0.348   3.450  0.3916  0.0998  0.1539
 1746SOL    HW1 5057   1.332   0.387   3.505 -0.5672  1.2620  0.6789
 1746SOL    HW2 5058   1.226   0.263   3.492  0.3070  0.4824  0.8747
 1747SOL     OW 5059   4.401   0.055   2.081 -0.2738  0.2676 -0.2160
 1747SOL    HW1 5060   4.408   0.132   2.017  0.4454 -0.3715 -0.9277
 1747SOL    HW2 5061   4.379  -0.028   2.030  0.0048 -0.1967  0.4144
 1748SOL     OW 5062   0.411   4.221   1.035  0.4441  0.3089 -0.0551
 1748SOL    HW1 5063   0.372   4.153   1.098  0.6675  1.7169  1.6895
 1748SOL    HW2 5064   0.506   4.199   1.017  1.1146  1.1641  2.1062
 1749SOL     OW 5065   3.983   0.760   0.645 -0.4234  0.5864  0.0973
 1749SOL    HW1 5066   4.033   0.774   0.730 -0.8723  0.0265  0.4627
 1749SOL    HW2 5067   3.900   0.815   0.646 -0.8409 -0.0437  0.3793
 1750SOL     OW 5068   4.501   4.680   1.506 -0.3453  0.8073  0.6741
 1750SOL    HW1 5069   4.432   4.608   1.495 -0.8026  1.2166  0.7976
 1750SOL    HW2 5070   4.457   4.769   1.491  0.3334  1.0319 -0.0370
 1751SOL     OW 5071   1.159   4.298   4.928  0.2177  0.2683 -0.1396
 1751SOL    HW1 5072   1.082   4.267   4.984 -0.7444  2.3151 -0.2461
 1751SOL    HW2 5073   1.238   4.239   4.946 -1.4117 -2.1309 -0.2868
 1752SOL     OW 5074   1.599   0.536   2.387  0.1298 -0.0755  0.3183
 1752SOL    HW1 5075   1.601   0.564   2.483 -0.1415  1.8981 -0.2014
 1752SOL    HW2 5076   1.563   0.611   2.332  0.6695 -1.0197 -1.3816
 1753SOL     OW 5077   0.965   5.014   4.908  0.4941  0.3128 -0.1607
 1753SOL    HW1 5078   0.936   4.919   4.916 -0.3977  0.5375 -0.5344
 1753SOL    HW2 5079   0.884   5.073   4.904  1.0435  1.2051  1.3298
 1754SOL     OW 5080   3.600   3.831   0.155  0.6234  0.5665 -0.2134
 1754SOL    HW1 5081   3.637   3.793   0.240  0.3133  0.2154 -0.2333
 1754SOL    HW2 5082   3.529   3.771   0.120  2.1222 -0.3560 -1.7921
 1755SOL     OW 5083   4.920   4.156   0.997 -0.1964 -0.4873 -0.5198
 1755SOL    HW1 5084   4.960   4.244   0.971  1.0961 -1.3839 -1.6756
 1755SOL    HW2 5085   4.936   4.089   0.925 -1.0236 -1.7313  0.4120
 1756SOL     OW 5086   3.353   0.494   2.107 -0.4426 -0.2765 -0.3243
 1756SOL    HW1 5087   3.326   0.399   2.089 -0.3227 -0.5115  0.6612
 1756SOL    HW2 5088   3.439   0.513   2.060  0.2446 -1.0937  0.5450
 1757SOL     OW 5089   4.938   2.599   3.327  0.0990  0.5976 -0.3133
 1757SOL    HW1 5090   5.012   2.623   3.391 -0.4423 -0.4603  0.7416
 1757SOL    HW2 5091   4.968   2.524   3.268 -0.1278  0.1522  0.1308
 1758SOL     OW 5092   3.830   2.100   0.516  0.1242 -0.0123 -0.1542
 1758SOL    HW1 5093   3.921   2.063   0.532 -0.1008 -1.1416 -1.3456
 1758SOL    HW2 5094   3.761   2.031   0.540 -0.3579  0.2020 -0.8894
 1759SOL     OW 5095   4.842   1.042   4.977 -0.1369 -0.6773 -0.2525
 1759SOL    HW1 5096   4.830   1.114   5.046 -0.6781 -0.6488 -0.3773
 1759SOL    HW2 5097   4.884   0.962   5.020 -1.9563 -1.2750  0.5062
 1760SOL     OW 5098   1.886   1.957   1.436  0.2327 -0.6535 -0.2703
 1760SOL    HW1 5099   1.871   1.920   1.527 -1.3204 -0.9525 -0.6229
 1760SOL    HW2 5100   1.974   2.005   1.433 -0.2430  0.4348  1.7244
 1761SOL     OW 5101   0.676   4.406   0.127  0.5402 -0.4956  0.0207
 1761SOL    HW1 5102   0.671   4.384   0.029  1.9474 -0.1420 -0.1621
 1761SOL    HW2 5103   0.763   4.452   0.145 -0.7607  1.7464  0.9947
 1762SOL     OW 5104   0.576   3.681   2.289  0.7840  0.2895 -0.0429
 1762SOL    HW1 5105   0.498   3.655   2.345  1.3684 -0.7039  0.3395
 1762SOL    HW2 5106   0.630   3.751   2.336  1.8231 -1.2396  1.1528
 1763SOL     OW 5107   4.011   4.858   0.033  0.2439  0.0628  0.3047
 1763SOL    HW1 5108   3.967   4.843  -0.055  0.8893  1.2904 -0.2559
 1763SOL    HW2 5109   4.105   4.824   0.030  0.4562  0.6376  0.3169
 1764SOL     OW 5110   0.964   4.466   0.107 -0.2170  0.3563 -0.5604
 1764SOL    HW1 5111   1.035   4.503   0.047 -1.5642  1.2157 -1.6846
 1764SOL    HW2 5112   0.941   4.373   0.079 -0.2439  0.4453 -0.8324
 1765SOL     OW 5113   4.559   0.118   0.744  0.4191  0.3795 -0.0184
 1765SOL    HW1 5114   4.647   0.161   0.722 -0.5999  1.1108 -3.1611
 1765SOL    HW2 5115   4.538   0.048   0.675 -2.4892  1.8351 -0.7638
 1766SOL     OW 5116   0.412   4.457   1.931  0.8436 -0.8677  0.5433
 1766SOL    HW1 5117   0.452   4.444   1.840 -0.2411 -2.6335  0.2693
 1766SOL    HW2 5118   0.321   4.416   1.934  0.8934 -0.9574  2.4530
 1767SOL     OW 5119   2.468   4.152   1.206 -0.4925 -0.2080  0.3574
 1767SOL    HW1 5120   2.451   4.057   1.179  1.3921 -0.3791 -0.4199
 1767SOL    HW2 5121   2.567   4.167   1.212 -0.7671  1.6399  0.7622
 1768SOL     OW 5122   0.577   4.930   2.633  0.3916  0.0090  0.3690
 1768SOL    HW1 5123   0.558   4.861   2.704 -0.6875  0.3109  0.3904
 1768SOL    HW2 5124   0.659   4.903   2.582 -0.3959 -1.6600 -0.0857
 1769SOL     OW 5125   1.252   4.913   4.696 -0.1899  0.2295 -0.2888
 1769SOL    HW1 5126   1.274   4.858   4.777  1.0262 -0.5727 -1.1192
 1769SOL    HW2 5127   1.196   4.991   4.723 -0.0446 -0.1652  1.2782
 1770SOL     OW 5128   4.380   0.440   2.473 -0.1339  0.1726  0.0783
 1770SOL    HW1 5129   4.446   0.365   2.475  0.9581  1.1059 -0.0476
 1770SOL    HW2 5130   4.384   0.485   2.384 -0.4650  0.6483  0.3023
 1771SOL     OW 5131   4.729   1.135   4.757 -0.4902  0.1161  0.4136
 1771SOL    HW1 5132   4.777   1.083   4.828 -1.9848 -1.0363  0.6547
 1771SOL    HW2 5133   4.674   1.207   4.800 -1.2593 -0.4721  0.4561
 1772SOL     OW 5134   4.829   0.086   4.106 -0.4797 -0.2545  0.3542
 1772SOL    HW1 5135   4.920   0.078   4.065  0.9179 -0.4985  3.2441
 1772SOL    HW2 5136   4.762   0.039   4.048  1.0459  0.4583 -2.1695
 1773SOL     OW 5137   3.745   2.338   0.448 -0.4828 -0.4654 -0.2175
 1773SOL    HW1 5138   3.783   2.250   0.478  1.0987 -0.0227 -0.7975
 1773SOL    HW2 5139   3.683   2.322   0.371 -0.3987 -1.1067 -0.1606
 1774SOL     OW 5140   0.347   3.067   2.133  0.0218  0.3011 -0.0395
 1774SOL    HW1 5141   0.373   2.984   2.082 -1.0803  0.5103 -0.9801
 1774SOL    HW2 5142   0.372   3.055   2.229  0.5479 -0.8279 -0.2893
 1775SOL     OW 5143   1.485   2.786   2.924  0.8178 -0.6421 -0.3255
 1775SOL    HW1 5144   1.567   2.821   2.879  0.0733 -0.4125 -1.5457
 1775SOL    HW2 5145   1.501   2.781   3.023  1.5290  1.5365 -0.2731
 1776SOL     OW 5146   3.692   0.499   0.763  0.0839  0.4360 -0.1424
 1776SOL    HW1 5147   3.626   0.426   0.778 -0.2517  0.8141  0.2412
 1776SOL    HW2 5148   3.662   0.556   0.687  0.2097  0.3375 -0.2677
 1777SOL     OW 5149   1.101   3.078   2.166 -0.2398 -0.2294  0.2769
 1777SOL    HW1 5150   1.014   3.118   2.137  0.5471  1.3301 -0.0113
 1777SOL    HW2 5151   1.103   3.071   2.265 -0.1103  1.1738  0.3903
 1778SOL     OW 5152   0.575   1.392   2.453 -0.5651  0.2294 -0.1576
 1778SOL    HW1 5153   0.514   1.452   2.504  0.3976  2.0388 -1.0323
 1778SOL    HW2 5154   0.628   1.335   2.516 -2.8060 -1.1123  0.6295
 1779SOL     OW 5155   1.736   4.419   0.485 -0.4273 -0.4115 -0.4861
 1779SOL    HW1 5156   1.662   4.484   0.471  0.0039 -0.2263 -2.1169
 1779SOL    HW2 5157   1.737   4.352   0.411  1.2928 -0.1373 -0.7666
 1780SOL     OW 5158   1.148   2.037   2.644 -0.0432 -0.4208  0.2872
 1780SOL    HW1 5159   1.178   1.942   2.627  2.6566  0.3676  0.1543
 1780SOL    HW2 5160   1.203   2.099   2.588 -1.3409  1.2928  0.8466
 1781SOL     OW 5161   0.893   4.052   1.638  0.3635  0.1812  0.2776
 1781SOL    HW1 5162   0.812   4.110   1.636 -1.8119 -2.5600  1.9921
 1781SOL    HW2 5163   0.936   4.053   1.548 -2.4973  0.5584 -1.2076
 1782SOL     OW 5164   4.517   1.055   1.923 -0.2184 -0.5234 -0.0311
 1782SOL    HW1 5165   4.495   1.147   1.955  1.3516  0.7365 -2.2632
 1782SOL    HW2 5166   4.583   1.012   1.986  1.0419  0.9658 -0.2792
 1783SOL     OW 5167   4.668   3.693   1.252 -0.2304  0.3894  0.6201
 1783SOL    HW1 5168   4.583   3.641   1.248 -0.0174  0.0227  0.8040
 1783SOL    HW2 5169   4.720   3.665   1.332 -0.4807  1.4656  1.1730
 1784SOL     OW 5170   0.394   4.399   2.996  0.8816  0.9964 -0.0443
 1784SOL    HW1 5171   0.324   4.412   3.067 -0.3845  0.4271 -1.1634
 1784SOL    HW2 5172   0.404   4.484   2.944  0.4205  0.8262 -0.4134
 1785SOL     OW 5173   3.426   4.971   0.564 -0.0876 -0.2798  0.1875
 1785SOL    HW1 5174   3.332   4.944   0.544  0.1364 -0.6533 -0.3971
 1785SOL    HW2 5175   3.482   4.890   0.577  0.8032 -0.2176 -2.5681
 1786SOL     OW 5176   4.426   3.391   4.976 -0.4538 -0.1374  0.2299
 1786SOL    HW1 5177   4.371   3.470   4.946  0.5133  0.4372 -0.0816
 1786SOL    HW2 5178   4.365   3.315   4.998 -1.3071 -0.1629 -1.9167
 1787SOL     OW 5179   4.812   2.767   4.247  0.3393 -0.0974  0.2430
 1787SOL    HW1 5180   4.899   2.757   4.295  0.0226  0.1720  0.8858
 1787SOL    HW2 5181   4.808   2.702   4.171  0.7963 -0.6201  0.6594
 1788SOL     OW 5182   1.952   1.149   0.794 -0.3955  0.1194 -0.3287
 1788SOL    HW1 5183   2.022   1.121   0.728 -1.8673  1.2590 -2.4663
 1788SOL    HW2 5184   1.934   1.247   0.784 -0.2937  0.4648  2.1928
 1789SOL     OW 5185   4.400   1.085   4.351 -0.3164  0.2354 -0.1773
 1789SOL    HW1 5186   4.418   1.093   4.449  0.1050  1.3355 -0.3273
 1789SOL    HW2 5187   4.473   1.031   4.309 -1.0619 -1.1584  0.2586
 1790SOL     OW 5188   2.153   0.416   3.475 -0.0240  0.3172 -0.1156
 1790SOL    HW1 5189   2.239   0.372   3.502 -1.8899 -1.4008  3.7831
 1790SOL    HW2 5190   2.097   0.351   3.423 -1.4623 -1.0562  2.9108
 1791SOL     OW 5191   2.526   2.563   4.532 -0.0541 -0.2748  0.4773
 1791SOL    HW1 5192   2.552   2.570   4.435 -1.7644 -0.2373  0.0030
 1791SOL    HW2 5193   2.508   2.467   4.555  0.0941 -0.2512  0.6962
 1792SOL     OW 5194   3.115   0.277   4.707  0.0382  0.4305 -0.3513
 1792SOL    HW1 5195   3.045   0.256   4.775  0.4380 -1.5934 -0.5043
 1792SOL    HW2 5196   3.143   0.373   4.716 -1.2322  0.6950  1.0882
 1793SOL     OW 5197   2.192   0.097   4.199  0.0414 -0.4150  0.2700
 1793SOL    HW1 5198   2.276   0.105   4.251  0.3533  0.5005 -0.3638
 1793SOL    HW2 5199   2.115   0.080   4.261  0.5318 -0.2147  0.9329
 1794SOL     OW 5200   4.000   4.391   1.044  0.2878  0.3997 -0.2949
 1794SOL    HW1 5201   3.944   4.474   1.049 -0.0579  0.1977 -0.7476
 1794SOL    HW2 5202   4.095   4.416   1.023 -0.2855  0.5706 -3.1141
 1795SOL     OW 5203   3.231   0.542   1.154  0.2925 -0.1625  0.0134
 1795SOL    HW1 5204   3.296   0.559   1.079 -0.9237  0.9264 -0.8356
 1795SOL    HW2 5205   3.271   0.575   1.240  1.4980 -0.9628 -0.2103
 1796SOL     OW 5206   0.768   0.556   4.229  0.4428  0.1916  0.3863
 1796SOL    HW1 5207   0.866   0.574   4.214  0.1382  0.7292 -1.0815
 1796SOL    HW2 5208   0.714   0.633   4.195 -0.5875 -0.9543 -0.6909
 1797SOL     OW 5209   4.476   0.584   2.698  0.3890 -0.6799  0.2342
 1797SOL    HW1 5210   4.452   0.680   2.685  1.6233 -0.0517  2.2426
 1797SOL    HW2 5211   4.448   0.531   2.617 -0.4478  1.3173 -0.8343
 1798SOL     OW 5212   3.709   2.844   3.629  0.3780  0.1909  0.0250
 1798SOL    HW1 5213   3.663   2.915   3.682  0.8469  0.2574  0.3482
 1798SOL    HW2 5214   3.779   2.800   3.685 -0.3639 -0.9913  0.0536
 1799SOL     OW 5215   3.953   3.731   0.559 -0.5774 -0.1365  0.0537
 1799SOL    HW1 5216   3.912   3.714   0.648 -0.2057  0.9517  0.4557
 1799SOL    HW2 5217   4.045   3.768   0.571 -0.7273  0.5451 -0.7663
 1800SOL     OW 5218   3.629   1.807   3.692 -0.3313 -0.5316  0.6148
 1800SOL    HW1 5219   3.691   1.729   3.677  0.4513  0.0737  0.6537
 1800SOL    HW2 5220   3.535   1.778   3.675  0.2003 -0.6169 -2.7971
 1801SOL     OW 5221   1.595   3.967   2.161 -0.0082 -0.7171 -0.4164
 1801SOL    HW1 5222   1.664   3.911   2.114  0.5447  1.0712 -1.8608
 1801SOL    HW2 5223   1.639   4.021   2.232  0.1992  0.6326 -1.5222
 1802SOL     OW 5224   4.340   4.026   0.326 -0.1340  0.3588 -0.0078
 1802SOL    HW1 5225   4.320   3.939   0.282  1.0340 -0.5667  1.1946
 1802SOL    HW2 5226   4.439   4.033   0.343 -0.5434  0.2287  3.1491
 1803SOL     OW 5227   0.710   4.451   1.483 -0.3493 -0.1907  0.2152
 1803SOL    HW1 5228   0.675   4.384   1.418  0.8067 -1.5555  0.9245
 1803SOL    HW2 5229   0.800   4.482   1.454 -0.0524 -0.4136  0.8730
 1804SOL     OW 5230   0.344   1.808   0.315 -0.2332 -0.1555 -0.3232
 1804SOL    HW1 5231   0.347   1.846   0.222 -3.1120  2.3806  0.4461
 1804SOL    HW2 5232   0.432   1.824   0.360  0.1860  1.4329 -1.6090
 1805SOL     OW 5233   0.878   2.865   2.438  0.0176  0.1335  0.6606
 1805SOL    HW1 5234   0.929   2.780   2.446  1.4030  0.6483 -1.7563
 1805SOL    HW2 5235   0.941   2.940   2.416 -1.4848  1.2826  0.0950
 1806SOL     OW 5236   3.197   1.842   1.715 -0.1485  0.0943 -0.2502
 1806SOL    HW1 5237   3.232   1.751   1.696  1.2630  0.6056 -0.1719
 1806SOL    HW2 5238   3.175   1.850   1.812 -0.1134 -0.1027 -0.2254
 1807SOL     OW 5239   3.735   3.075   0.723  0.4976 -0.0629 -0.1178
 1807SOL    HW1 5240   3.744   3.153   0.661  1.2652  0.7193  0.9250
 1807SOL    HW2 5241   3.825   3.054   0.763  0.4161 -1.8623 -0.8106
 1808SOL     OW 5242   0.490   1.374   2.902 -0.2265  0.1892  0.0652
 1808SOL    HW1 5243   0.543   1.446   2.858 -0.7728  1.9487  2.1253
 1808SOL    HW2 5244   0.393   1.388   2.881 -0.1732 -1.4165 -1.4664
 1809SOL     OW 5245   1.476   2.087   4.228 -0.3894  0.6130  0.0665
 1809SOL    HW1 5246   1.511   2.010   4.280  0.0915 -1.1116 -2.6061
 1809SOL    HW2 5247   1.540   2.164   4.235  0.6008 -0.2243  0.4874
 1810SOL     OW 5248   3.073   2.190   2.735  0.2736 -0.1806 -0.1518
 1810SOL    HW1 5249   3.052   2.203   2.832  0.7729 -1.1485  0.1031
 1810SOL    HW2 5250   3.088   2.092   2.717 -1.6156 -0.2729 -1.5831
 1811SOL     OW 5251   1.716   0.059   1.947  0.0235  0.1169 -0.2300
 1811SOL    HW1 5252   1.647   0.076   2.018  1.1121  1.3631  0.5774
 1811SOL    HW2 5253   1.703  -0.033   1.910 -0.7216 -0.5075  1.4431
 1812SOL     OW 5254   1.396   0.120   4.398  0.0286 -0.0168  0.6853
 1812SOL    HW1 5255   1.318   0.182   4.392  0.2470  0.2697  0.7826
 1812SOL    HW2 5256   1.430   0.118   4.492  1.5088  1.5747  0.2457
 1813SOL     OW 5257   3.668   1.943   1.183 -0.8314  0.3679 -0.2539
 1813SOL    HW1 5258   3.728   2.008   1.135 -0.4261  0.0147 -0.2331
 1813SOL    HW2 5259   3.724   1.881   1.239 -1.2153  0.0005 -0.2715
 1814SOL     OW 5260   0.574   0.697   2.280 -0.2599  0.1961  0.0191
 1814SOL    HW1 5261   0.656   0.641   2.295  0.0348  0.9200  1.2988
 1814SOL    HW2 5262   0.572   0.728   2.185  0.0077 -1.2729 -0.4877
 1815SOL     OW 5263   0.745   3.727   0.472 -0.6397 -0.1837  0.0914
 1815SOL    HW1 5264   0.732   3.738   0.571  1.7776 -1.1877  0.5946
 1815SOL    HW2 5265   0.808   3.796   0.439  1.7216 -2.1747  0.1121
 1816SOL     OW 5266   0.339   4.426   0.855  0.3361  0.2347 -0.2048
 1816SOL    HW1 5267   0.362   4.355   0.921  1.4090 -0.3503 -1.1800
 1816SOL    HW2 5268   0.379   4.404   0.766 -0.3225  1.4604 -0.8373
 1817SOL     OW 5269   2.361   2.745   5.012 -0.3443 -0.1878 -0.0342
 1817SOL    HW1 5270   2.406   2.707   5.093 -0.3927  2.1587  1.1956
 1817SOL    HW2 5271   2.420   2.732   4.932  0.3208 -1.3727  0.6188
 1818SOL     OW 5272   0.475   1.899   4.563  0.4450 -0.9330 -0.1714
 1818SOL    HW1 5273   0.377   1.909   4.582  0.5736 -1.1052  0.5997
 1818SOL    HW2 5274   0.521   1.865   4.644  1.1683 -0.7351 -0.4960
 1819SOL     OW 5275   1.762   2.839   2.275 -0.2269  0.8230  0.8228
 1819SOL    HW1 5276   1.749   2.863   2.372 -0.7704  2.0024  0.4812
 1819SOL    HW2 5277   1.859   2.830   2.256 -0.1279  0.2600  1.5515
 1820SOL     OW 5278   1.869   1.842   2.958 -1.0195  0.6622  0.6061
 1820SOL    HW1 5279   1.875   1.939   2.980 -0.4554  0.6548  0.4917
 1820SOL    HW2 5280   1.789   1.826   2.900 -0.9906  1.0897  0.4481
 1821SOL     OW 5281   0.513   2.188   1.954 -0.4179  0.3791  0.3693
 1821SOL    HW1 5282   0.479   2.237   2.034 -1.5569 -0.1149  0.2103
 1821SOL    HW2 5283   0.440   2.132   1.915 -0.2934  1.6077 -1.8030
 1822SOL     OW 5284   0.990   2.302   2.663  0.7355  0.5641  0.0718
 1822SOL    HW1 5285   1.019   2.235   2.595  0.3485  0.5139 -0.0452
 1822SOL    HW2 5286   0.896   2.283   2.691  0.9844  0.4187  0.8299
 1823SOL     OW 5287   2.995   0.507   4.159  0.1873  0.1978  0.0744
 1823SOL    HW1 5288   2.990   0.410   4.184 -2.1486 -0.0132 -0.9691
 1823SOL    HW2 5289   3.047   0.517   4.074 -1.0052 -0.4038 -0.7633
 1824SOL     OW 5290   0.429   4.997   1.060  0.6032 -0.2092  0.0199
 1824SOL    HW1 5291   0.485   4.926   1.101  1.3621  1.5761  2.2672
 1824SOL    HW2 5292   0.338   4.997   1.103  0.9127  0.7385  0.6996
 1825SOL     OW 5293   0.217   0.440   0.928  0.0518 -0.2024 -0.2549
 1825SOL    HW1 5294   0.231   0.341   0.923  2.7224 -0.2126  3.4110
 1825SOL    HW2 5295   0.299   0.486   0.893 -0.8324  0.7191 -1.1470
 1826SOL     OW 5296   4.509   2.687   0.002 -0.2434  0.0505 -0.2885
 1826SOL    HW1 5297   4.428   2.642   0.039  1.0477 -1.4414  0.8559
 1826SOL    HW2 5298   4.489   2.721  -0.090 -1.7630 -1.4174 -0.5422
 1827SOL     OW 5299   3.092   4.408   0.549  0.4276 -0.2346 -0.0844
 1827SOL    HW1 5300   3.124   4.388   0.457  0.2394  0.5557 -0.3291
 1827SOL    HW2 5301   3.127   4.339   0.612  0.4360 -0.8628 -0.7655
 1828SOL     OW 5302   3.333   1.609   4.907  0.1798 -0.3433  0.1547
 1828SOL    HW1 5303   3.267   1.546   4.866 -0.7663  0.0201  1.0581
 1828SOL    HW2 5304   3.386   1.653   4.835 -1.1239 -0.0479 -0.6641
 1829SOL     OW 5305   1.718   1.083   4.163  0.0062 -0.0597  0.2981
 1829SOL    HW1 5306   1.727   1.092   4.263  0.0349 -1.7781  0.4813
 1829SOL    HW2 5307   1.622   1.069   4.140 -0.1588  1.4828 -0.0525
 1830SOL     OW 5308   0.037   4.206   3.935 -0.0860  0.1375 -0.7860
 1830SOL    HW1 5309   0.132   4.185   3.962 -0.4533  0.8140  1.2721
 1830SOL    HW2 5310   0.019   4.170   3.844  1.7193 -1.2663 -0.6529
 1831SOL     OW 5311   1.203   0.699   2.424 -0.9384 -0.1325  0.5813
 1831SOL    HW1 5312   1.106   0.710   2.403 -0.6803 -1.4865 -1.5089
 1831SOL    HW2 5313   1.250   0.787   2.411 -1.8795  0.5910  1.8458
 1832SOL     OW 5314   1.985   3.129   0.770 -0.4324  0.2483  0.1399
 1832SOL    HW1 5315   1.989   3.041   0.722 -4.1946  0.4840 -0.9197
 1832SOL    HW2 5316   1.920   3.123   0.845  0.0547  1.8812  0.7419
 1833SOL     OW 5317   0.489   3.177   3.599  0.2978 -0.7192  0.2082
 1833SOL    HW1 5318   0.435   3.150   3.519  1.2662 -2.2958  0.0442
 1833SOL    HW2 5319   0.519   3.271   3.589 -1.6077 -0.0957 -0.1246
 1834SOL     OW 5320   4.966   4.723   2.835  0.2842 -0.1685  0.0062
 1834SOL    HW1 5321   5.061   4.753   2.846 -0.1397  1.8999 -1.4117
 1834SOL    HW2 5322   4.948   4.707   2.738 -1.3288  1.4213  0.0038
 1835SOL     OW 5323   1.562   0.744   1.649  0.4964  0.3645 -0.0826
 1835SOL    HW1 5324   1.581   0.674   1.717  1.1807  1.8433  1.3199
 1835SOL    HW2 5325   1.494   0.710   1.583 -0.8505 -0.8326  1.8280
 1836SOL     OW 5326   2.661   4.351   0.087 -0.2620  0.6851  0.0494
 1836SOL    HW1 5327   2.677   4.289   0.010  0.7732  1.7314 -0.6159
 1836SOL    HW2 5328   2.741   4.353   0.146 -0.2618  1.4312  0.0308
 1837SOL     OW 5329   2.673   1.834   0.114 -0.0241  0.5884 -0.8074
 1837SOL    HW1 5330   2.704   1.849   0.020  0.8766  2.3829 -0.2778
 1837SOL    HW2 5331   2.574   1.835   0.117 -0.0815 -0.2013 -1.8288
 1838SOL     OW 5332   2.319   1.921   2.860  0.0045  0.4672  0.1728
 1838SOL    HW1 5333   2.306   2.018   2.882 -0.0696  0.8440 -1.4217
 1838SOL    HW2 5334   2.231   1.880   2.837  0.2514  0.4940 -0.8883
 1839SOL     OW 5335   0.036   2.153   0.748  0.0089  0.0486  0.2259
 1839SOL    HW1 5336   0.081   2.102   0.674  0.5539  2.4715 -1.2468
 1839SOL    HW2 5337  -0.001   2.238   0.711 -0.6897  0.8327  2.5779
 1840SOL     OW 5338   3.067   1.107   3.966  0.3855 -0.3067  0.2017
 1840SOL    HW1 5339   3.087   1.197   3.926 -0.1086 -0.2381  0.1042
 1840SOL    HW2 5340   3.064   1.115   4.066 -2.0726  0.3255  0.1428
 1841SOL     OW 5341   1.499   3.882   0.055  0.4189  0.1662 -0.2540
 1841SOL    HW1 5342   1.516   3.784   0.049  1.1278  0.2864 -0.2842
 1841SOL    HW2 5343   1.419   3.906  -0.000 -0.5711 -0.5878  0.8051
 1842SOL     OW 5344   1.345   1.814   4.499 -0.3458  0.4146 -0.8014
 1842SOL    HW1 5345   1.292   1.729   4.506  0.5728 -0.0547  1.5490
 1842SOL    HW2 5346   1.282   1.891   4.496 -1.3084 -0.1213  2.0100
 1843SOL     OW 5347   3.538   2.049   0.073 -0.4270 -0.1588  0.2305
 1843SOL    HW1 5348   3.441   2.074   0.068 -0.4415 -0.2742 -0.0843
 1843SOL    HW2 5349   3.547   1.950   0.064 -0.3840 -0.2995  1.6528
 1844SOL     OW 5350   2.585   0.802   4.199 -0.2964  0.1228  0.3074
 1844SOL    HW1 5351   2.648   0.873   4.231  0.3079  0.2755 -1.1679
 1844SOL    HW2 5352   2.559   0.820   4.105 -1.4146 -0.7536  0.4237
 1845SOL     OW 5353   4.347   0.075   1.586 -0.1810  0.2853  0.0227
 1845SOL    HW1 5354   4.441   0.077   1.619 -0.5927 -0.8623  1.3652
 1845SOL    HW2 5355   4.342   0.024   1.500  0.4138  0.4230 -0.0957
 1846SOL     OW 5356   3.878   0.587   0.941  0.0231  0.5405 -0.0949
 1846SOL    HW1 5357   3.925   0.661   0.893 -0.2889  0.7617 -0.0599
 1846SOL    HW2 5358   3.804   0.552   0.884 -0.4590  0.9192  0.2933
 1847SOL     OW 5359   3.789   0.147   2.370 -0.1882 -0.6271  0.0613
 1847SOL    HW1 5360   3.801   0.065   2.313 -0.2260 -0.8228  0.3353
 1847SOL    HW2 5361   3.876   0.196   2.376 -0.4635  0.0473 -1.1604
 1848SOL     OW 5362   0.726   0.412   4.854 -0.0949 -0.4201 -0.0206
 1848SOL    HW1 5363   0.770   0.476   4.917 -1.4050 -0.0752  0.5544
 1848SOL    HW2 5364   0.717   0.455   4.764 -0.3335 -0.0613  0.1745
 1849SOL     OW 5365   0.346   3.455   1.726 -0.4791 -0.0265 -0.6101
 1849SOL    HW1 5366   0.317   3.370   1.769 -1.1657  0.5619  0.1106
 1849SOL    HW2 5367   0.434   3.483   1.763 -0.7507  0.1266 -0.0796
 1850SOL     OW 5368   2.628   2.880   2.501  0.1382  0.2933 -0.4398
 1850SOL    HW1 5369   2.719   2.850   2.529  0.0843  0.1757 -0.3921
 1850SOL    HW2 5370   2.636   2.942   2.423  0.3023  0.7712 -0.0485
 1851SOL     OW 5371   5.022   1.703   0.181  0.1495 -0.0090  0.2767
 1851SOL    HW1 5372   5.073   1.726   0.263  2.6496  0.4220 -1.2863
 1851SOL    HW2 5373   4.984   1.787   0.141 -0.4890 -0.1326  0.6113
 1852SOL     OW 5374   3.622   4.344   2.566 -0.5705 -0.1157 -0.0388
 1852SOL    HW1 5375   3.630   4.388   2.476  0.5634 -0.4667 -0.1266
 1852SOL    HW2 5376   3.585   4.409   2.632 -1.9978 -0.0223 -0.8729
 1853SOL     OW 5377   3.147   2.384   1.332 -0.2024 -0.1671  0.1211
 1853SOL    HW1 5378   3.159   2.455   1.262 -0.8909 -0.4179 -0.2573
 1853SOL    HW2 5379   3.146   2.294   1.289  1.1033 -0.4573  0.6462
 1854SOL     OW 5380   0.273   1.655   2.730  0.2841  0.2100 -0.3793
 1854SOL    HW1 5381   0.243   1.623   2.819 -1.5798  0.7732 -0.7588
 1854SOL    HW2 5382   0.208   1.722   2.695  0.6990 -0.3574 -2.3762
 1855SOL     OW 5383   2.540   1.802   2.026 -0.6191  0.0702 -0.2400
 1855SOL    HW1 5384   2.460   1.862   2.021 -1.0208 -0.4595 -0.2327
 1855SOL    HW2 5385   2.580   1.791   1.935 -2.7249 -2.5575 -0.9730
 1856SOL     OW 5386   0.064   0.166   4.082 -0.2839  0.3624 -0.4256
 1856SOL    HW1 5387   0.134   0.225   4.043 -0.5203 -0.4713 -2.2162
 1856SOL    HW2 5388   0.103   0.076   4.102 -0.1870  0.7498  1.2640
 1857SOL     OW 5389   3.572   0.872   3.983 -0.2873  0.0851  0.0855
 1857SOL    HW1 5390   3.480   0.908   3.966  0.1576  0.1562 -2.7699
 1857SOL    HW2 5391   3.570   0.813   4.063 -2.7317  0.4041  0.3484
 1858SOL     OW 5392   0.803   2.665   2.746 -0.0384  0.2975 -0.2687
 1858SOL    HW1 5393   0.854   2.633   2.666 -0.2449 -1.4713  0.2511
 1858SOL    HW2 5394   0.719   2.711   2.716  0.1818  0.1863 -1.0756
 1859SOL     OW 5395   0.689   3.290   3.015 -0.7040  0.0407 -0.1397
 1859SOL    HW1 5396   0.778   3.313   3.055 -0.4210  0.1581 -0.8194
 1859SOL    HW2 5397   0.616   3.316   3.079 -0.2768  0.4765  0.1843
 1860SOL     OW 5398   3.774   1.594   3.638 -0.3467  0.6448 -0.3192
 1860SOL    HW1 5399   3.861   1.615   3.681 -0.4298 -0.3550  0.3571
 1860SOL    HW2 5400   3.730   1.519   3.686 -0.2139 -0.8791 -2.4358
 1861SOL     OW 5401   4.142   3.088   2.029  0.0572  0.4122 -0.3394
 1861SOL    HW1 5402   4.189   3.111   1.944 -2.4529 -0.8166 -2.1877
 1861SOL    HW2 5403   4.182   3.005   2.068  0.4448  0.2959 -0.9741
 1862SOL     OW 5404   3.105   4.493   0.911 -0.2639  0.0967 -0.0124
 1862SOL    HW1 5405   3.203   4.489   0.892 -0.0046 -1.4178  1.3855
 1862SOL    HW2 5406   3.055   4.514   0.827  1.0443 -2.4282 -1.5303
 1863SOL     OW 5407   0.608   0.927   4.573  0.2146 -0.3589  0.8525
 1863SOL    HW1 5408   0.538   0.997   4.558  0.2766 -0.2526  1.0515
 1863SOL    HW2 5409   0.686   0.944   4.511 -0.7658 -1.6431 -0.8242
 1864SOL     OW 5410   1.040   1.717   0.025 -0.1166 -0.5878  0.1229
 1864SOL    HW1 5411   1.080   1.667   0.101 -0.4786 -0.9070  0.1075
 1864SOL    HW2 5412   0.954   1.760   0.055  0.3560  0.2987  0.2274
 1865SOL     OW 5413   2.236   2.182   0.867  0.5825  0.4263  0.0917
 1865SOL    HW1 5414   2.277   2.105   0.817 -0.1759  0.9468 -1.4248
 1865SOL    HW2 5415   2.261   2.177   0.963  2.1763 -0.6043 -0.3381
 1866SOL     OW 5416   1.396   0.856   4.403 -0.2718  0.5577 -0.3280
 1866SOL    HW1 5417   1.495   0.846   4.405 -0.2559  0.6560  1.4415
 1866SOL    HW2 5418   1.354   0.775   4.445 -0.9204  0.7363 -0.6139
 1867SOL     OW 5419   0.577   4.729   2.829  0.5894  0.0078 -0.4801
 1867SOL    HW1 5420   0.594   4.770   2.919  1.1154 -1.3175  0.0524
 1867SOL    HW2 5421   0.650   4.663   2.808 -1.4637 -2.5397 -0.1478
 1868SOL     OW 5422   3.311   4.886   1.890 -0.6800 -0.1205 -0.3087
 1868SOL    HW1 5423   3.398   4.860   1.848  0.4654  0.6767  1.4588
 1868SOL    HW2 5424   3.250   4.807   1.891  0.2673 -0.8966 -0.9468
 1869SOL     OW 5425   3.422   1.970   2.572 -0.1625 -0.5699  0.3734
 1869SOL    HW1 5426   3.435   1.982   2.670  0.7748  0.2047  0.1650
 1869SOL    HW2 5427   3.342   2.023   2.543 -1.0779 -1.6206  0.8646
 1870SOL     OW 5428   3.750   4.654   4.550 -0.0783  0.1137  0.4742
 1870SOL    HW1 5429   3.843   4.644   4.586 -0.8008 -0.6462  2.2546
 1870SOL    HW2 5430   3.687   4.600   4.605 -1.4236 -0.4319 -1.4925
 1871SOL     OW 5431   4.631   4.305   4.760 -0.0498 -0.0249  0.0532
 1871SOL    HW1 5432   4.586   4.244   4.695  1.2732 -0.7108 -0.2435
 1871SOL    HW2 5433   4.569   4.323   4.837 -1.1486 -0.2169 -0.7640
 1872SOL     OW 5434   2.209   0.451   1.152  0.0134 -0.7291  0.5956
 1872SOL    HW1 5435   2.153   0.369   1.145 -2.2552  0.8131 -0.6413
 1872SOL    HW2 5436   2.296   0.436   1.104 -1.1966 -1.7730 -1.3860
 1873SOL     OW 5437   4.384   1.731   4.695 -0.0089 -0.2153  0.0309
 1873SOL    HW1 5438   4.304   1.684   4.658 -1.0572  0.6164  1.1786
 1873SOL    HW2 5439   4.412   1.687   4.781  0.3160 -0.0396  0.0172
 1874SOL     OW 5440   3.086   3.482   2.537  0.0591 -0.3034 -0.0012
 1874SOL    HW1 5441   3.162   3.476   2.601 -1.1204 -2.3752  1.2947
 1874SOL    HW2 5442   3.100   3.417   2.462  0.1038  0.1655 -0.4096
 1875SOL     OW 5443   3.270   2.942   0.244  0.0683  0.3267  0.3688
 1875SOL    HW1 5444   3.328   2.918   0.322  0.2385  2.1953  0.8689
 1875SOL    HW2 5445   3.326   2.981   0.171 -0.4341  1.4524  0.5631
 1876SOL     OW 5446   1.435   2.500   1.787 -0.6519  0.5985  0.3287
 1876SOL    HW1 5447   1.483   2.452   1.714  0.5012  2.3331 -0.1094
 1876SOL    HW2 5448   1.339   2.473   1.787 -0.0441 -1.7549  0.2008
 1877SOL     OW 5449   3.467   3.109   0.103 -0.2942  0.1750  0.5763
 1877SOL    HW1 5450   3.404   3.175   0.062 -0.4927  1.8792  3.3507
 1877SOL    HW2 5451   3.539   3.158   0.153  2.2859 -1.7350 -1.0062
 1878SOL     OW 5452   2.551   3.763   0.595  0.3453 -0.0657 -0.5043
 1878SOL    HW1 5453   2.624   3.767   0.663 -0.7556  0.6584  0.7024
 1878SOL    HW2 5454   2.497   3.847   0.600 -1.4596 -1.1872 -0.3245
 1879SOL     OW 5455   3.936   3.562   4.143  0.2637 -0.3391  0.1645
 1879SOL    HW1 5456   4.007   3.515   4.196 -0.4332 -0.7579  0.7378
 1879SOL    HW2 5457   3.930   3.521   4.052  0.0383 -0.9949  0.4738
 1880SOL     OW 5458   2.627   2.354   3.053 -0.4033 -0.4143 -0.0590
 1880SOL    HW1 5459   2.663   2.274   3.007  0.9145  0.3873 -0.4735
 1880SOL    HW2 5460   2.685   2.377   3.131  0.5648  1.3938 -1.2296
 1881SOL     OW 5461   1.366   3.979   1.475  0.0921 -0.3130  0.2646
 1881SOL    HW1 5462   1.443   4.013   1.423  1.6648 -0.4360  2.3816
 1881SOL    HW2 5463   1.301   3.934   1.414  1.3950  0.2726 -1.6307
 1882SOL     OW 5464   1.121   0.936   4.495  0.2010 -0.3622  0.1355
 1882SOL    HW1 5465   1.217   0.942   4.469  1.2164 -0.8183  3.3443
 1882SOL    HW2 5466   1.076   0.866   4.439  2.5371 -2.3400  0.5501
 1883SOL     OW 5467   0.154   3.501   2.797 -0.3962 -0.3585  0.2605
 1883SOL    HW1 5468   0.074   3.559   2.781 -1.0065 -0.3752  2.8194
 1883SOL    HW2 5469   0.235   3.558   2.808 -0.4252 -0.2095 -0.2787
 1884SOL     OW 5470   1.566   2.665   0.458  0.4467 -0.0736  0.8184
 1884SOL    HW1 5471   1.479   2.710   0.439  1.1208  0.4011 -1.3550
 1884SOL    HW2 5472   1.548   2.579   0.507 -1.4067 -0.8224 -1.0106
 1885SOL     OW 5473   3.087   4.010   0.218 -0.0684 -0.5063 -0.4664
 1885SOL    HW1 5474   3.098   4.078   0.146  1.4483 -0.2241  0.0031
 1885SOL    HW2 5475   3.125   3.923   0.188 -0.2761 -0.6403 -0.3454
 1886SOL     OW 5476   0.200   3.443   3.596  0.1075  0.1331  0.1756
 1886SOL    HW1 5477   0.184   3.443   3.695  2.4039  0.1648  0.6029
 1886SOL    HW2 5478   0.250   3.526   3.571  0.8465 -0.5766 -0.7543
 1887SOL     OW 5479   1.734   2.194   2.757 -0.1648 -0.1435  0.3269
 1887SOL    HW1 5480   1.790   2.276   2.764  0.5800 -0.6544  0.5125
 1887SOL    HW2 5481   1.774   2.132   2.690  1.0725 -1.7066  2.3980
 1888SOL     OW 5482   1.394   1.111   1.544  0.0544  0.0609  0.1756
 1888SOL    HW1 5483   1.485   1.148   1.523 -0.1994  0.0552 -1.0363
 1888SOL    HW2 5484   1.365   1.051   1.470 -1.6458  1.3879 -0.3131
 1889SOL     OW 5485   4.760   3.527   2.088  0.0322 -0.1130 -0.2179
 1889SOL    HW1 5486   4.685   3.468   2.058 -0.9606  1.1719 -0.3497
 1889SOL    HW2 5487   4.832   3.471   2.129 -1.5852 -1.2794  1.1711
 1890SOL     OW 5488   4.806   1.547   4.414  0.2977  0.3913  0.0822
 1890SOL    HW1 5489   4.762   1.630   4.379  0.0724  0.8162  1.3026
 1890SOL    HW2 5490   4.738   1.494   4.465  0.7807  0.1852  0.5175
 1891SOL     OW 5491   2.151   0.663   3.039  0.2776  0.1475 -0.5411
 1891SOL    HW1 5492   2.193   0.626   3.122 -0.5948  1.4093  0.5236
 1891SOL    HW2 5493   2.140   0.591   2.971  1.8928 -0.7175  0.0604
 1892SOL     OW 5494   1.710   4.218   4.635 -0.0226 -0.6643  0.4696
 1892SOL    HW1 5495   1.726   4.234   4.538  0.0577 -2.2272  0.2090
 1892SOL    HW2 5496   1.623   4.261   4.662  0.4020  0.5597 -0.0582
 1893SOL     OW 5497   2.823   1.982   3.934  0.1259 -0.3998  0.1204
 1893SOL    HW1 5498   2.908   1.963   3.983  1.3027  0.9418 -1.2685
 1893SOL    HW2 5499   2.774   2.057   3.979  1.0760  0.6571 -0.5402
 1894SOL     OW 5500   3.305   3.532   0.832  0.3226 -0.3450  0.3805
 1894SOL    HW1 5501   3.212   3.500   0.852  0.0983  1.1789  2.0068
 1894SOL    HW2 5502   3.339   3.485   0.750 -1.4427 -1.7427  0.3721
 1895SOL     OW 5503   0.829   0.446   0.642 -0.1696  0.1975 -0.2890
 1895SOL    HW1 5504   0.899   0.377   0.622  0.4103  0.4407  0.7800
 1895SOL    HW2 5505   0.864   0.536   0.619 -0.6477  0.2099 -0.9930
 1896SOL     OW 5506   4.830   3.519   0.261 -0.0635 -0.1565  0.3230
 1896SOL    HW1 5507   4.736   3.509   0.227 -0.6843  0.6457  1.6988
 1896SOL    HW2 5508   4.849   3.448   0.329 -0.5799  1.0815  1.8477
 1897SOL     OW 5509   2.230   2.605   2.642  0.3898  0.4228 -0.5478
 1897SOL    HW1 5510   2.209   2.652   2.728 -0.6335  1.2783 -1.2284
 1897SOL    HW2 5511   2.294   2.660   2.589  2.1011 -0.7575  0.2261
 1898SOL     OW 5512   3.762   3.276   0.524  0.3653  0.0996 -0.0575
 1898SOL    HW1 5513   3.833   3.319   0.469  0.7719 -0.6420 -0.1190
 1898SOL    HW2 5514   3.716   3.346   0.579 -1.0191  1.1134 -2.3532
 1899SOL     OW 5515   0.230   3.615   0.378 -0.2365  0.1568  0.2664
 1899SOL    HW1 5516   0.246   3.575   0.288 -0.9024 -0.2021  0.2989
 1899SOL    HW2 5517   0.310   3.667   0.406  0.3536 -0.5305 -0.1091
 1900SOL     OW 5518   1.115   0.118   4.723 -0.3992  0.4101 -0.0509
 1900SOL    HW1 5519   1.057   0.164   4.655  0.0779  3.7344  1.6082
 1900SOL    HW2 5520   1.058   0.065   4.785 -0.9359 -1.8087 -2.2913
 1901SOL     OW 5521   4.435   2.270   0.993 -0.5499  0.4585 -0.4844
 1901SOL    HW1 5522   4.431   2.367   1.019  0.7401  0.8062 -1.4553
 1901SOL    HW2 5523   4.494   2.260   0.913  0.2376 -1.2737  0.2729
 1902SOL     OW 5524   1.590   4.888   3.026 -0.6029  0.0216 -0.4680
 1902SOL    HW1 5525   1.580   4.941   2.942  0.6171 -1.1422 -1.3906
 1902SOL    HW2 5526   1.653   4.935   3.088 -1.9003  1.1358  0.0480
 1903SOL     OW 5527   4.837   3.890   0.528  0.3232  0.0700  0.5832
 1903SOL    HW1 5528   4.884   3.828   0.591 -0.2156  0.5181  1.4448
 1903SOL    HW2 5529   4.780   3.836   0.466 -0.2183 -0.3171  1.3879
 1904SOL     OW 5530   1.905   0.869   4.903  0.5576 -0.0650 -0.1620
 1904SOL    HW1 5531   2.000   0.854   4.931  0.8453  0.6336 -0.7704
 1904SOL    HW2 5532   1.898   0.952   4.849 -0.4386 -0.0048  0.0429
 1905SOL     OW 5533   1.839   2.366   3.673 -0.3118 -0.3892  0.2231
 1905SOL    HW1 5534   1.889   2.314   3.742 -1.1165  0.7843  1.7313
 1905SOL    HW2 5535   1.867   2.462   3.676 -0.1878 -0.3428 -1.2811
 1906SOL     OW 5536   1.437   2.414   4.374  0.1240  0.1737  0.1330
 1906SOL    HW1 5537   1.513   2.379   4.320 -0.1064 -0.0291 -0.0617
 1906SOL    HW2 5538   1.448   2.383   4.469  0.1597 -0.0531  0.0570
 1907SOL     OW 5539   1.778   1.262   2.108 -0.1882 -0.4767 -0.3338
 1907SOL    HW1 5540   1.741   1.345   2.149 -0.1516 -0.2567 -0.7392
 1907SOL    HW2 5541   1.705   1.211   2.063  0.0286  0.1186 -1.4093
 1908SOL     OW 5542   1.494   2.588   1.170  0.3052 -0.1628 -0.5315
 1908SOL    HW1 5543   1.416   2.646   1.147 -0.5254 -1.2210 -0.4555
 1908SOL    HW2 5544   1.535   2.619   1.256 -0.8467 -0.3705  0.1171
 1909SOL     OW 5545   1.018   4.319   2.125  0.1385  0.5223 -0.0411
 1909SOL    HW1 5546   1.015   4.416   2.103  0.6308 -0.0428 -3.0616
 1909SOL    HW2 5547   0.973   4.267   2.052  0.5771 -1.5824  1.1053
 1910SOL     OW 5548   2.763   3.098   1.815  0.1134  0.2958 -0.5023
 1910SOL    HW1 5549   2.700   3.174   1.800 -1.5368 -0.9146  0.0338
 1910SOL    HW2 5550   2.819   3.084   1.733  0.9868  2.5006 -0.3627
 1911SOL     OW 5551   2.000   1.970   0.027 -0.8085  0.6125 -0.0685
 1911SOL    HW1 5552   1.907   1.981  -0.007 -1.5332 -0.5432  1.4140
 1911SOL    HW2 5553   1.998   1.916   0.111  1.2014  0.6524  0.0431
 1912SOL     OW 5554   3.644   0.635   0.532 -0.2279 -0.5384 -0.8779
 1912SOL    HW1 5555   3.721   0.589   0.487  0.1024 -0.4299 -0.4369
 1912SOL    HW2 5556   3.665   0.732   0.542  0.3073 -0.7912  0.7389
 1913SOL     OW 5557   0.818   4.296   3.523  0.7116 -0.1888  0.0023
 1913SOL    HW1 5558   0.761   4.302   3.604  0.3549  1.5988 -0.3315
 1913SOL    HW2 5559   0.801   4.209   3.476 -0.1617 -0.5949  1.0288
 1914SOL     OW 5560   1.730   4.550   4.064 -0.2005 -0.0389 -0.3078
 1914SOL    HW1 5561   1.819   4.513   4.088  0.1856 -0.7337 -2.5719
 1914SOL    HW2 5562   1.704   4.518   3.973 -0.3559  4.2727 -2.0400
 1915SOL     OW 5563   4.367   4.511   4.472 -0.1080  0.4132 -0.5103
 1915SOL    HW1 5564   4.315   4.434   4.434  0.3813 -0.1704 -0.0244
 1915SOL    HW2 5565   4.337   4.530   4.565 -1.1192  1.6701 -1.0661
 1916SOL     OW 5566   2.958   2.243   2.985 -0.0750  0.1243  0.8548
 1916SOL    HW1 5567   2.866   2.206   2.988 -0.2929  0.6820  1.3389
 1916SOL    HW2 5568   2.961   2.329   3.037  0.9384 -0.3740  1.6518
 1917SOL     OW 5569   2.938   4.955   4.001  0.1325 -0.3139  0.2277
 1917SOL    HW1 5570   3.020   4.928   3.950  0.0978 -0.8020  0.4249
 1917SOL    HW2 5571   2.960   5.031   4.062  0.5020 -0.6148  0.4710
 1918SOL     OW 5572   1.285   1.332   3.002  0.1482  0.3539 -0.2164
 1918SOL    HW1 5573   1.333   1.363   3.083  0.5419  1.0997 -0.7237
 1918SOL    HW2 5574   1.340   1.263   2.954  0.7991  1.3027 -0.8690
 1919SOL     OW 5575   3.502   4.850   2.651  0.0847  0.1146  0.0976
 1919SOL    HW1 5576   3.538   4.931   2.697 -0.3394  0.9322 -0.9769
 1919SOL    HW2 5577   3.541   4.844   2.559 -0.0954 -0.7577  0.0658
 1920SOL     OW 5578   4.418   3.667   3.206  0.0893 -0.1720  0.3004
 1920SOL    HW1 5579   4.482   3.743   3.202 -0.4151  0.2923 -3.9094
 1920SOL    HW2 5580   4.341   3.685   3.145 -0.3591 -3.7680 -0.4607
 1921SOL     OW 5581   2.867   1.961   3.666  0.1298 -0.0214  0.8497
 1921SOL    HW1 5582   2.862   1.886   3.732  1.1474 -1.4601 -0.6439
 1921SOL    HW2 5583   2.911   2.040   3.709  1.2628 -1.1021  1.7455
 1922SOL     OW 5584   0.426   1.368   4.855  0.1215 -0.6326 -0.0483
 1922SOL    HW1 5585   0.361   1.343   4.783 -1.8568  0.9091  1.0998
 1922SOL    HW2 5586   0.507   1.309   4.849 -1.5393 -2.9442 -1.2880
 1923SOL     OW 5587   1.848   4.044   0.035 -0.2132 -0.2937  0.2599
 1923SOL    HW1 5588   1.908   4.104   0.088  0.3929 -0.5952 -0.0739
 1923SOL    HW2 5589   1.861   3.949   0.065  1.7029 -0.7607 -1.8164
 1924SOL     OW 5590   2.921   0.721   1.452  0.4134  0.3762 -0.0534
 1924SOL    HW1 5591   2.838   0.672   1.423  1.7237 -1.5455 -0.7271
 1924SOL    HW2 5592   2.991   0.655   1.480  1.6674  1.9654  0.7188
 1925SOL     OW 5593   1.687   1.413   2.673 -0.2698 -0.1056 -0.3302
 1925SOL    HW1 5594   1.704   1.325   2.628 -0.6614 -0.8659  0.9455
 1925SOL    HW2 5595   1.722   1.410   2.766  0.9366  1.5907 -0.6723
 1926SOL     OW 5596   3.547   1.511   0.573 -0.2881 -0.1636 -0.0892
 1926SOL    HW1 5597   3.595   1.582   0.624 -0.7267  0.0960 -0.0297
 1926SOL    HW2 5598   3.563   1.422   0.616 -0.0195 -0.0566  0.0383
 1927SOL     OW 5599   2.253   0.855   0.630 -0.1989 -0.0838 -0.1890
 1927SOL    HW1 5600   2.191   0.931   0.612 -1.4657 -1.0722 -0.1821
 1927SOL    HW2 5601   2.340   0.890   0.665 -1.3462  1.2505  1.4656
 1928SOL     OW 5602   0.109   3.182   0.957 -0.0651  0.0168  0.2370
 1928SOL    HW1 5603   0.064   3.211   0.874  0.1267 -0.2585  0.0332
 1928SOL    HW2 5604   0.167   3.255   0.992 -1.1976  0.6294  0.8872
 1929SOL     OW 5605   2.862   2.417   3.186 -0.1818 -0.3104  0.0991
 1929SOL    HW1 5606   2.949   2.416   3.235  0.3386 -1.1606 -0.7890
 1929SOL    HW2 5607   2.853   2.502   3.135  0.3345 -0.3970 -0.1425
 1930SOL     OW 5608   1.638   3.027   4.284 -0.3371  0.1518  0.2223
 1930SOL    HW1 5609   1.610   2.991   4.195 -1.5964  3.5027 -0.9093
 1930SOL    HW2 5610   1.576   2.995   4.354 -0.7385 -0.6956 -0.5039
 1931SOL     OW 5611   4.563   0.763   2.322 -0.3855  0.0018 -0.0540
 1931SOL    HW1 5612   4.645   0.715   2.352  0.3178 -0.2390 -2.1675
 1931SOL    HW2 5613   4.484   0.701   2.328 -0.1861 -0.1817  0.7692
 1932SOL     OW 5614   3.235   3.263   3.791  0.1536 -0.5440  0.3428
 1932SOL    HW1 5615   3.332   3.277   3.806  0.4356 -0.2389 -1.4944
 1932SOL    HW2 5616   3.221   3.208   3.708 -1.2215 -1.8815  1.3885
 1933SOL     OW 5617   3.519   3.617   1.717 -0.1847  0.3822  0.2662
 1933SOL    HW1 5618   3.504   3.518   1.716  1.0322  0.1806  0.4629
 1933SOL    HW2 5619   3.535   3.648   1.811 -0.6638  0.7812  0.2182
 1934SOL     OW 5620   2.978   3.542   4.830 -0.1352  0.4088  0.1493
 1934SOL    HW1 5621   2.887   3.508   4.808 -0.1502  1.8754 -2.3720
 1934SOL    HW2 5622   3.046   3.476   4.798 -0.2068 -1.0376  2.6705
 1935SOL     OW 5623   1.942   0.175   1.857  0.5012 -0.1183  0.4590
 1935SOL    HW1 5624   1.852   0.144   1.887  0.5229  0.4464  1.1175
 1935SOL    HW2 5625   2.010   0.105   1.878  0.3497 -0.1785  0.7566
 1936SOL     OW 5626   1.205   4.366   3.117  0.7295 -0.4179 -0.3772
 1936SOL    HW1 5627   1.201   4.270   3.146  0.2426 -0.5877 -0.9705
 1936SOL    HW2 5628   1.257   4.373   3.032 -2.3471 -0.7423 -2.4475
 1937SOL     OW 5629   3.706   2.335   3.969  0.0226 -0.4783 -0.2817
 1937SOL    HW1 5630   3.760   2.261   4.011 -1.9226 -1.9033 -0.1694
 1937SOL    HW2 5631   3.618   2.344   4.016 -0.0610  1.5134 -0.7230
 1938SOL     OW 5632   3.109   4.673   1.908 -0.2439 -0.6271  1.1846
 1938SOL    HW1 5633   3.045   4.659   1.983  1.3699 -0.0048  2.7386
 1938SOL    HW2 5634   3.098   4.599   1.841 -3.5062  0.2252  0.6365
 1939SOL     OW 5635   0.096   3.869   4.104  0.4557 -0.4320 -0.4115
 1939SOL    HW1 5636   0.043   3.948   4.135  0.4649 -0.0495 -1.3148
 1939SOL    HW2 5637   0.144   3.828   4.181 -0.9727 -0.6549  0.3921
 1940SOL     OW 5638   2.463   0.280   1.850  0.3971  0.1017 -0.4072
 1940SOL    HW1 5639   2.438   0.208   1.785  1.7399 -2.3862  1.6543
 1940SOL    HW2 5640   2.511   0.353   1.802  0.9577 -1.4191 -2.2877
 1941SOL     OW 5641   1.935   2.948   2.703  0.0120 -0.4224 -0.4837
 1941SOL    HW1 5642   1.935   3.041   2.668 -0.4819  0.6445  2.1866
 1941SOL    HW2 5643   2.025   2.907   2.687  0.8356  1.1658 -0.0878
 1942SOL     OW 5644   0.663   4.313   4.166 -0.1889 -0.6444 -0.2218
 1942SOL    HW1 5645   0.650   4.221   4.130  0.3978 -0.3011 -1.3513
 1942SOL    HW2 5646   0.629   4.380   4.101  1.1186  0.0038 -0.2743
 1943SOL     OW 5647   3.209   0.556   3.983  0.2928 -0.3317  0.6276
 1943SOL    HW1 5648   3.188   0.645   3.943  0.7370 -0.5275 -0.0615
 1943SOL    HW2 5649   3.197   0.484   3.914 -1.3965 -0.9822  1.5309
 1944SOL     OW 5650   0.209   4.609   4.799  0.3189 -1.0749 -0.0573
 1944SOL    HW1 5651   0.180   4.580   4.708  0.0683  0.4673 -0.5079
 1944SOL    HW2 5652   0.141   4.580   4.867 -0.1197 -1.1624 -0.5304
 1945SOL     OW 5653   2.008   0.342   1.662 -0.3009 -0.3164 -0.2010
 1945SOL    HW1 5654   2.074   0.289   1.609 -0.2421 -2.4942  1.8965
 1945SOL    HW2 5655   1.969   0.285   1.733 -2.0261  1.8643  0.7149
 1946SOL     OW 5656   5.005   1.134   1.812 -0.3849 -0.4824  0.0166
 1946SOL    HW1 5657   4.927   1.188   1.844 -0.1912 -1.4599  2.2799
 1946SOL    HW2 5658   5.082   1.196   1.795 -1.1859  0.3210 -0.8764
 1947SOL     OW 5659   2.452   0.269   0.145 -0.4564 -0.2218  0.3335
 1947SOL    HW1 5660   2.488   0.351   0.189 -1.3819  0.5835 -0.3514
 1947SOL    HW2 5661   2.527   0.208   0.120  0.2373  0.3867  0.9159
 1948SOL     OW 5662   2.440   1.277   3.537  0.2448 -0.2209  0.5306
 1948SOL    HW1 5663   2.511   1.224   3.583 -0.1482 -1.2484 -0.0169
 1948SOL    HW2 5664   2.482   1.338   3.469  0.6329 -0.4582  0.5569
 1949SOL     OW 5665   4.649   1.245   1.272 -0.0982  0.0892  0.2511
 1949SOL    HW1 5666   4.563   1.200   1.246 -0.4232 -0.4897  2.1580
 1949SOL    HW2 5667   4.633   1.302   1.352  0.8635  1.7381 -0.6707
 1950SOL     OW 5668   4.085   3.224   3.117  0.8663  0.2083  0.2977
 1950SOL    HW1 5669   4.184   3.240   3.115  0.7754  0.7949 -1.6617
 1950SOL    HW2 5670   4.057   3.180   3.032 -0.1872 -2.7019  2.0044
 1951SOL     OW 5671   0.261   0.944   2.754 -0.1977  0.0778 -0.3534
 1951SOL    HW1 5672   0.343   0.978   2.707 -1.2302  0.6213 -1.8319
 1951SOL    HW2 5673   0.270   0.846   2.769  0.6616  0.1035 -0.6235
 1952SOL     OW 5674   2.366   1.334   2.948  0.0886 -0.1145  0.3799
 1952SOL    HW1 5675   2.433   1.269   2.910 -1.6817 -0.8451 -1.7024
 1952SOL    HW2 5676   2.337   1.398   2.877 -1.9750 -0.3116  0.9702
 1953SOL     OW 5677   4.610   2.683   3.585 -0.7679  0.2269  0.2963
 1953SOL    HW1 5678   4.694   2.733   3.606 -0.0987 -1.0416  0.7315
 1953SOL    HW2 5679   4.629   2.613   3.517 -1.7184  0.5875 -0.3724
 1954SOL     OW 5680   1.282   4.095   4.008  0.0998  0.3149  0.1247
 1954SOL    HW1 5681   1.289   4.064   3.913  0.3025  1.5371 -0.2708
 1954SOL    HW2 5682   1.304   4.019   4.069  0.8671 -0.2428 -0.8215
 1955SOL     OW 5683   1.910   4.892   0.072  0.4329 -0.0868  0.5271
 1955SOL    HW1 5684   1.859   4.864  -0.010 -0.1656  0.3776  0.7293
 1955SOL    HW2 5685   1.938   4.811   0.123 -0.8742 -0.3582  0.8649
 1956SOL     OW 5686   1.144   4.365   3.675  0.0538 -0.0015 -0.1212
 1956SOL    HW1 5687   1.173   4.398   3.585  1.8873 -0.6775  0.1738
 1956SOL    HW2 5688   1.054   4.403   3.697 -0.5947 -0.1016 -2.3667
 1957SOL     OW 5689   2.773   1.196   0.813  0.0641 -0.2513 -0.3607
 1957SOL    HW1 5690   2.871   1.179   0.815 -0.0257 -1.1514 -1.8135
 1957SOL    HW2 5691   2.753   1.281   0.860  1.7747  0.9548 -1.6709
 1958SOL     OW 5692   4.495   3.768   3.728 -0.0835 -0.0618  0.3509
 1958SOL    HW1 5693   4.580   3.734   3.768  0.9752 -0.5573 -2.1188
 1958SOL    HW2 5694   4.472   3.713   3.648 -0.3172  2.7233 -1.6515
 1959SOL     OW 5695   3.572   1.183   4.171 -0.1277 -0.2811  0.0706
 1959SOL    HW1 5696   3.659   1.135   4.178  0.2513  0.0938 -1.6871
 1959SOL    HW2 5697   3.587   1.281   4.180 -0.6780 -0.3284  1.9133
 1960SOL     OW 5698   0.708   0.536   4.616 -0.5475  0.1075  0.1792
 1960SOL    HW1 5699   0.767   0.617   4.612  1.1782 -1.1439 -1.6283
 1960SOL    HW2 5700   0.623   0.554   4.565 -0.2297  0.8078 -0.1166
 1961SOL     OW 5701   5.002   4.687   4.258 -0.0405 -0.0608 -0.2262
 1961SOL    HW1 5702   5.100   4.677   4.243  0.0286  1.8347 -1.3716
 1961SOL    HW2 5703   4.952   4.655   4.178 -0.4435 -1.6417  0.6081
 1962SOL     OW 5704   2.512   0.344   1.100 -0.6336  0.1987 -0.1311
 1962SOL    HW1 5705   2.476   0.317   1.189  1.1684 -0.3492  0.4674
 1962SOL    HW2 5706   2.516   0.263   1.040  1.0947 -0.1373  0.3702
 1963SOL     OW 5707   4.644   2.829   4.007 -0.0634  0.0930  0.0868
 1963SOL    HW1 5708   4.736   2.863   3.986 -0.2260  0.8996  0.6547
 1963SOL    HW2 5709   4.580   2.863   3.939  0.1433 -0.9827 -0.6764
 1964SOL     OW 5710   0.614   2.302   4.315  0.1346  0.1183  0.5481
 1964SOL    HW1 5711   0.520   2.336   4.314  0.5923  1.4066  0.5528
 1964SOL    HW2 5712   0.630   2.251   4.400 -1.0998 -1.7628 -0.2678
 1965SOL     OW 5713   2.290   0.694   1.850  0.2582  0.2622  0.2130
 1965SOL    HW1 5714   2.226   0.766   1.878 -2.8475 -1.1941 -2.4662
 1965SOL    HW2 5715   2.295   0.625   1.921 -0.2664  0.9619  0.9480
 1966SOL     OW 5716   2.763   1.536   2.972  0.1742  0.2890 -0.3507
 1966SOL    HW1 5717   2.819   1.456   2.949 -0.3928 -0.3261  0.3541
 1966SOL    HW2 5718   2.675   1.530   2.926 -0.0544  0.2593  0.0863
 1967SOL     OW 5719   1.280   1.385   1.589 -0.2175 -0.7916  0.1112
 1967SOL    HW1 5720   1.279   1.286   1.607 -1.2494 -0.8510 -0.1673
 1967SOL    HW2 5721   1.373   1.420   1.596  0.1495 -1.7746  0.2799
 1968SOL     OW 5722   0.849   0.785   1.981  0.1425 -0.5332  0.2747
 1968SOL    HW1 5723   0.908   0.719   2.028  1.7066  0.4742 -0.1795
 1968SOL    HW2 5724   0.899   0.871   1.968 -0.8136 -0.2026 -1.6976
 1969SOL     OW 5725   0.054   1.818   2.702 -0.0255 -0.3873  0.4152
 1969SOL    HW1 5726   0.025   1.819   2.798 -0.6754 -1.6441  0.2569
 1969SOL    HW2 5727  -0.021   1.849   2.644  0.8448  1.8166  0.3829
 1970SOL     OW 5728   0.067   0.108   2.380 -0.0083 -0.2025 -0.2713
 1970SOL    HW1 5729   0.023   0.195   2.404  0.2114 -0.6331  1.8829
 1970SOL    HW2 5730   0.150   0.126   2.326 -0.3356  0.8707 -0.4375
 1971SOL     OW 5731   3.154   1.607   4.073 -0.1506  0.1872 -0.2983
 1971SOL    HW1 5732   3.161   1.696   4.028  0.7469 -0.2046 -0.9372
 1971SOL    HW2 5733   3.211   1.607   4.155 -0.7677  0.4571  0.1403
 1972SOL     OW 5734   1.343   2.017   3.738 -0.3943 -0.2278 -0.5228
 1972SOL    HW1 5735   1.253   1.974   3.742 -0.4888 -0.0564 -0.8125
 1972SOL    HW2 5736   1.376   2.019   3.644 -0.6494  0.8514 -0.6085
 1973SOL     OW 5737   3.004   4.659   0.621  0.4448 -0.4806  0.1314
 1973SOL    HW1 5738   3.034   4.567   0.595  1.9475 -0.5006  1.7407
 1973SOL    HW2 5739   3.081   4.708   0.662 -0.8270  0.8190  1.0394
 1974SOL     OW 5740   0.153   0.767   3.228 -0.3687  0.1540  0.3675
 1974SOL    HW1 5741   0.129   0.759   3.132  1.8329  0.7079 -0.2983
 1974SOL    HW2 5742   0.137   0.679   3.274  0.4241 -0.7447 -0.9943
 1975SOL     OW 5743   3.472   3.341   1.230 -0.0220 -0.1713 -0.1399
 1975SOL    HW1 5744   3.406   3.316   1.159 -0.1314 -0.6610  0.1276
 1975SOL    HW2 5745   3.470   3.440   1.244 -1.1619 -0.2466  0.3157
 1976SOL     OW 5746   0.609   4.599   4.722  0.1670  0.0718 -0.0529
 1976SOL    HW1 5747   0.671   4.577   4.647 -1.9672 -2.7814 -1.1548
 1976SOL    HW2 5748   0.532   4.652   4.688 -0.8203 -1.2471  0.0746
 1977SOL     OW 5749   4.026   4.674   0.548 -0.0076 -0.2149  0.2803
 1977SOL    HW1 5750   4.000   4.766   0.519 -0.3768 -0.0383  1.1361
 1977SOL    HW2 5751   4.005   4.609   0.475 -2.3640 -0.0020  0.6879
 1978SOL     OW 5752   2.613   1.311   1.491  0.0497 -0.2861  0.1380
 1978SOL    HW1 5753   2.620   1.301   1.392  3.1107  0.3415  0.1793
 1978SOL    HW2 5754   2.643   1.227   1.536 -2.1521 -0.8876  0.6057
 1979SOL     OW 5755   3.065   1.045   2.469  0.4320  0.4652 -0.1361
 1979SOL    HW1 5756   3.029   0.974   2.529  0.3426  0.7754  0.1849
 1979SOL    HW2 5757   3.143   1.009   2.418  0.8829  0.3599  0.6022
 1980SOL     OW 5758   2.697   3.172   1.176 -0.5151  0.0213  0.1433
 1980SOL    HW1 5759   2.785   3.202   1.138  0.1539 -1.3778  0.5152
 1980SOL    HW2 5760   2.661   3.096   1.120 -2.0816  1.3186 -0.6967
 1981SOL     OW 5761   4.750   1.052   1.116  0.1375  0.3977 -0.5370
 1981SOL    HW1 5762   4.788   0.984   1.178 -0.6457 -0.6959 -1.2149
 1981SOL    HW2 5763   4.724   1.134   1.167  0.7864  0.0562  0.3461
 1982SOL     OW 5764   2.500   3.470   2.184 -0.0478 -0.3723 -0.2278
 1982SOL    HW1 5765   2.401   3.458   2.173 -0.1774  0.6999 -0.3323
 1982SOL    HW2 5766   2.534   3.407   2.254 -0.1484 -3.4080 -2.6839
 1983SOL     OW 5767   2.148   1.659   0.487  0.3965  0.0898 -0.3985
 1983SOL    HW1 5768   2.075   1.594   0.507  1.0481 -0.7756 -0.7894
 1983SOL    HW2 5769   2.120   1.751   0.516  0.0363 -0.5758  1.4859
 1984SOL     OW 5770   3.116   4.849   1.067  0.2894  0.0887 -0.5050
 1984SOL    HW1 5771   3.050   4.802   1.009  0.4040 -1.7811  0.7938
 1984SOL    HW2 5772   3.202   4.861   1.017 -0.7032  1.7811 -1.9105
 1985SOL     OW 5773   2.904   2.759   4.980  0.0473 -0.3126 -0.5122
 1985SOL    HW1 5774   2.832   2.731   4.916  0.0624 -0.4444 -0.4716
 1985SOL    HW2 5775   2.986   2.785   4.929 -0.0279 -0.1639 -0.5590
 1986SOL     OW 5776   1.875   1.884   3.444 -0.3973 -0.1720  0.6568
 1986SOL    HW1 5777   1.874   1.984   3.444 -0.2724 -0.1573 -0.3428
 1986SOL    HW2 5778   1.871   1.851   3.349 -0.2936 -1.1106  0.9709
 1987SOL     OW 5779   0.935   2.093   2.479 -0.7156  0.3311  0.1842
 1987SOL    HW1 5780   0.841   2.058   2.484 -0.4840 -0.4272 -0.4637
 1987SOL    HW2 5781   0.995   2.032   2.530 -0.5598  0.7655  0.5212
 1988SOL     OW 5782   4.963   0.915   1.980 -0.0480 -0.2842 -0.1132
 1988SOL    HW1 5783   4.990   1.006   1.948  1.1010 -0.3792  0.5267
 1988SOL    HW2 5784   4.947   0.918   2.078  0.7801 -0.9240  0.0557
 1989SOL     OW 5785   0.638   1.524   2.716  0.5464 -0.2459 -0.1968
 1989SOL    HW1 5786   0.605   1.595   2.778 -1.0784 -0.3696 -0.8836
 1989SOL    HW2 5787   0.674   1.566   2.633  0.4100 -0.1912 -0.2279
 1990SOL     OW 5788   4.236   0.491   4.827  1.0340 -0.0320  0.4327
 1990SOL    HW1 5789   4.146   0.498   4.871  1.0643  1.6448  0.3121
 1990SOL    HW2 5790   4.269   0.583   4.804  1.8930 -0.7383 -1.3556
 1991SOL     OW 5791   4.746   0.326   0.374  0.8339  0.0890 -0.4415
 1991SOL    HW1 5792   4.650   0.308   0.394  0.4843  0.1318 -1.9790
 1991SOL    HW2 5793   4.773   0.412   0.417  0.3658 -0.2162  0.4947
 1992SOL     OW 5794   1.386   1.649   4.943  0.4875 -0.2975  0.1721
 1992SOL    HW1 5795   1.399   1.561   4.898 -0.1339 -0.9699  1.2584
 1992SOL    HW2 5796   1.365   1.719   4.875  0.3724 -1.1104 -0.6469
 1993SOL     OW 5797   2.948   1.342   2.937  0.1249 -0.2736  0.5206
 1993SOL    HW1 5798   2.991   1.293   2.861 -1.2410 -0.4087 -0.2002
 1993SOL    HW2 5799   3.004   1.420   2.963  0.2404  0.2531 -1.1846
 1994SOL     OW 5800   4.343   0.597   2.249 -0.3039  0.0477 -0.4969
 1994SOL    HW1 5801   4.294   0.682   2.264  0.5841  0.7689 -1.5295
 1994SOL    HW2 5802   4.299   0.546   2.175 -2.0682 -1.4248  1.4456
 1995SOL     OW 5803   2.654   2.580   0.522  0.3563 -0.3602 -0.0819
 1995SOL    HW1 5804   2.589   2.510   0.554  0.8774 -0.7159  0.2186
 1995SOL    HW2 5805   2.715   2.540   0.453  0.3980 -0.0886 -0.2030
 1996SOL     OW 5806   1.838   2.881   0.811 -0.2503 -0.1652 -0.0883
 1996SOL    HW1 5807   1.866   2.810   0.876 -0.6582  0.9648  1.3617
 1996SOL    HW2 5808   1.794   2.956   0.860 -2.7339 -0.3137 -1.9150
 1997SOL     OW 5809   3.651   1.994   4.388 -0.1697 -0.1315 -0.2698
 1997SOL    HW1 5810   3.739   2.032   4.413  0.1318 -1.1468  0.2791
 1997SOL    HW2 5811   3.629   2.019   4.294 -0.0887  1.5291  0.1264
 1998SOL     OW 5812   1.378   0.184   3.107 -0.5123 -0.2842 -0.1375
 1998SOL    HW1 5813   1.439   0.256   3.140  0.7780 -0.9906 -0.9040
 1998SOL    HW2 5814   1.403   0.160   3.013 -1.7585 -0.8373 -0.3434
 1999SOL     OW 5815   2.243   4.908   1.207  0.5134  0.6202  0.1087
 1999SOL    HW1 5816   2.185   4.838   1.165 -1.0854  1.3190  1.0612
 1999SOL    HW2 5817   2.186   4.980   1.246  2.0744  2.0274 -0.0381
 2000SOL     OW 5818   2.755   1.441   3.601  0.8977 -0.2226 -0.9679
 2000SOL    HW1 5819   2.726   1.359   3.649  0.3623 -0.1053 -1.0847
 2000SOL    HW2 5820   2.700   1.452   3.518  0.5245  0.5974 -0.6242
 2001SOL     OW 5821   3.688   2.772   0.894  0.2227 -0.3681  0.3369
 2001SOL    HW1 5822   3.779   2.808   0.918  0.1670 -0.7759  1.1990
 2001SOL    HW2 5823   3.635   2.758   0.977 -1.0495  0.9036 -0.2231
 2002SOL     OW 5824   4.628   4.844   1.892  0.4516  0.2644  0.1442
 2002SOL    HW1 5825   4.628   4.773   1.821 -0.2993  0.5058 -0.1015
 2002SOL    HW2 5826   4.709   4.833   1.949  1.1112  0.1142 -0.7951
 2003SOL     OW 5827   4.378   4.690   4.100  0.4477  0.6659  0.0276
 2003SOL    HW1 5828   4.422   4.675   4.011 -0.3711  1.9370 -0.6285
 2003SOL    HW2 5829   4.441   4.737   4.161  1.2593 -0.8343  0.3867
 2004SOL     OW 5830   0.837   3.737   2.481  0.4776  0.3058  0.5261
 2004SOL    HW1 5831   0.830   3.765   2.577  1.3584  1.3948  0.2939
 2004SOL    HW2 5832   0.813   3.814   2.422  0.7392 -0.1067 -0.1272
 2005SOL     OW 5833   1.786   0.501   1.687 -0.0908 -0.0042 -0.3594
 2005SOL    HW1 5834   1.728   0.423   1.711  0.9910 -0.3301  1.4188
 2005SOL    HW2 5835   1.881   0.472   1.681  0.4479  1.2646  1.1211
 2006SOL     OW 5836   1.745   1.297   3.278  0.1694 -0.7633  0.0101
 2006SOL    HW1 5837   1.803   1.245   3.341  0.5611 -0.3176  0.0204
 2006SOL    HW2 5838   1.763   1.395   3.289 -0.4978 -0.6291 -0.0755
 2007SOL     OW 5839   2.169   2.160   4.457 -0.3306  0.0876 -0.2773
 2007SOL    HW1 5840   2.150   2.201   4.368 -0.4575 -1.5663 -1.0298
 2007SOL    HW2 5841   2.084   2.126   4.497 -0.3895  1.4556  0.8272
 2008SOL     OW 5842   3.827   1.654   1.050 -0.7346 -0.2586 -0.0916
 2008SOL    HW1 5843   3.817   1.715   1.129  1.3870  1.7024 -1.2337
 2008SOL    HW2 5844   3.736   1.634   1.012 -1.6837 -0.0769  1.9411
 2009SOL     OW 5845   0.078   3.057   0.537  0.0535 -0.2128  0.2140
 2009SOL    HW1 5846   0.041   3.122   0.604 -1.0932  1.4498 -1.9018
 2009SOL    HW2 5847   0.036   3.074   0.448  1.5031 -2.3519 -0.9592
 2010SOL     OW 5848   3.087   4.016   1.833 -0.2699  0.2327  0.1814
 2010SOL    HW1 5849   3.058   4.013   1.929  1.1300  0.3717  0.6419
 2010SOL    HW2 5850   3.029   4.081   1.783 -1.6301 -0.5465  0.6935
 2011SOL     OW 5851   3.706   1.183   2.835  0.6643  0.3827 -0.1109
 2011SOL    HW1 5852   3.781   1.179   2.901 -0.2387  1.3147  1.0237
 2011SOL    HW2 5853   3.743   1.193   2.743  1.9404  0.1997  0.3681
 2012SOL     OW 5854   1.545   4.478   2.321 -0.2549  0.5384  0.2118
 2012SOL    HW1 5855   1.587   4.426   2.395 -1.8781 -2.5370 -0.8409
 2012SOL    HW2 5856   1.593   4.459   2.235 -2.1668 -1.1389 -0.5754
 2013SOL     OW 5857   3.645   0.594   0.202  0.3879  0.3985 -0.0638
 2013SOL    HW1 5858   3.581   0.536   0.151  0.2388 -0.1493  0.7280
 2013SOL    HW2 5859   3.634   0.689   0.174  1.3435 -0.0571 -2.1480
 2014SOL     OW 5860   0.684   4.308   3.762  0.5067 -0.4484  0.0330
 2014SOL    HW1 5861   0.700   4.218   3.801 -0.0861 -0.5488  0.0603
 2014SOL    HW2 5862   0.588   4.333   3.775  0.2483 -0.5584 -1.5077
 2015SOL     OW 5863   1.777   1.829   1.661 -0.3282  0.5635  0.4057
 2015SOL    HW1 5864   1.829   1.744   1.668 -0.1857  0.4278 -1.7932
 2015SOL    HW2 5865   1.698   1.816   1.602  0.1070  2.1460 -0.5883
 2016SOL     OW 5866   2.713   0.166   0.110  0.1094 -0.1022 -0.3728
 2016SOL    HW1 5867   2.706   0.093   0.043 -0.8505 -0.2013 -0.1875
 2016SOL    HW2 5868   2.762   0.134   0.191 -0.8167 -0.7410 -0.0487
 2017SOL     OW 5869   4.324   2.127   3.345  0.3609  0.4604  0.0391
 2017SOL    HW1 5870   4.259   2.058   3.379  2.4794 -1.1913  0.9953
 2017SOL    HW2 5871   4.298   2.154   3.253  0.0449 -2.5645 -0.8765
 2018SOL     OW 5872   4.641   0.389   2.204 -0.0178  0.4396  0.0729
 2018SOL    HW1 5873   4.610   0.295   2.217 -0.7568  0.3480 -1.9002
 2018SOL    HW2 5874   4.593   0.428   2.126  0.0351  2.5888  1.0574
 2019SOL     OW 5875   4.294   3.875   2.393  0.3005  0.6812 -0.4098
 2019SOL    HW1 5876   4.222   3.882   2.325 -0.4720 -3.2001 -0.2068
 2019SOL    HW2 5877   4.259   3.904   2.482 -0.9675 -0.8277 -0.3825
 2020SOL     OW 5878   4.203   2.643   1.158 -0.2748  0.3115 -0.4600
 2020SOL    HW1 5879   4.195   2.742   1.168 -1.1679  0.1941  0.1888
 2020SOL    HW2 5880   4.115   2.600   1.180  0.2391 -0.6605 -0.2225
 2021SOL     OW 5881   4.727   4.760   2.369 -0.1803 -0.0507 -0.0591
 2021SOL    HW1 5882   4.785   4.685   2.403 -0.7314 -0.1906  0.6082
 2021SOL    HW2 5883   4.676   4.799   2.446 -1.1541 -0.0979 -0.6733
 2022SOL     OW 5884   3.376   0.500   4.281  0.1484  0.1980 -0.4546
 2022SOL    HW1 5885   3.437   0.427   4.248 -0.2183  0.2272 -1.2128
 2022SOL    HW2 5886   3.356   0.563   4.206 -1.5472 -0.3098 -0.4703
 2023SOL     OW 5887   0.030   4.394   3.557  0.3326  0.2172 -0.1963
 2023SOL    HW1 5888   0.111   4.431   3.602 -1.2007  0.7215  2.4140
 2023SOL    HW2 5889   0.023   4.296   3.577  0.3761  0.1433 -0.5434
 2024SOL     OW 5890   0.153   1.675   3.621 -0.2839 -0.5965  0.2529
 2024SOL    HW1 5891   0.087   1.600   3.618  0.8791 -1.6732  0.4927
 2024SOL    HW2 5892   0.111   1.756   3.662 -1.0241 -1.7174  1.7868
 2025SOL     OW 5893   0.663   0.302   1.447  0.1898 -0.5501 -0.2247
 2025SOL    HW1 5894   0.588   0.273   1.387 -0.8705  2.1276 -0.3558
 2025SOL    HW2 5895   0.717   0.373   1.402  0.4482  0.2766  1.2995
 2026SOL     OW 5896   1.421   0.077   3.719 -0.7287  0.5527  0.0999
 2026SOL    HW1 5897   1.510   0.103   3.682 -0.4199  1.4804  1.4526
 2026SOL    HW2 5898   1.426   0.071   3.818 -2.3697  1.3772  0.2586
 2027SOL     OW 5899   4.084   0.216   3.288 -0.3307 -0.1578 -0.1447
 2027SOL    HW1 5900   4.001   0.266   3.315 -0.3843 -0.9836  1.2898
 2027SOL    HW2 5901   4.074   0.120   3.312  0.3127 -0.6303 -1.6766
 2028SOL     OW 5902   3.401   1.731   1.218 -0.4765 -0.0272  0.3756
 2028SOL    HW1 5903   3.500   1.731   1.205 -0.3135 -0.9983  1.5294
 2028SOL    HW2 5904   3.357   1.750   1.130  0.6609 -2.4643 -0.8428
 2029SOL     OW 5905   3.427   0.480   0.400  0.2664  0.7375 -0.0142
 2029SOL    HW1 5906   3.484   0.561   0.416  0.1693  0.8609 -0.2816
 2029SOL    HW2 5907   3.484   0.404   0.372  0.0401  1.7055 -3.4953
 2030SOL     OW 5908   3.561   1.811   5.022 -0.1294  0.3745  0.2086
 2030SOL    HW1 5909   3.656   1.779   5.024  0.1536  1.1847  0.2398
 2030SOL    HW2 5910   3.530   1.818   4.927  0.2695  1.2978  0.1359
 2031SOL     OW 5911   1.401   1.507   0.248  0.1311 -0.4288  0.5404
 2031SOL    HW1 5912   1.399   1.457   0.334  1.0757  1.3184  1.6317
 2031SOL    HW2 5913   1.307   1.531   0.221 -0.1595 -0.8753  1.1473
 2032SOL     OW 5914   4.418   1.954   2.737  0.7318 -0.1957  0.3008
 2032SOL    HW1 5915   4.362   1.969   2.819  1.4058  1.1629  0.5329
 2032SOL    HW2 5916   4.505   2.002   2.747  0.8070  0.0128 -1.2466
 2033SOL     OW 5917   3.856   0.001   1.698  0.1304 -0.0089 -0.3670
 2033SOL    HW1 5918   3.791   0.022   1.771 -0.2599  0.0926 -0.7378
 2033SOL    HW2 5919   3.916  -0.073   1.727  0.6985  0.7638  0.4765
 2034SOL     OW 5920   4.989   2.304   1.383 -0.6468  0.0092  0.1165
 2034SOL    HW1 5921   5.068   2.359   1.354 -0.1009 -0.0495  1.4508
 2034SOL    HW2 5922   4.943   2.350   1.458 -1.1571 -0.5731  0.1646
 2035SOL     OW 5923   4.003   2.642   3.945 -0.4301 -0.0810 -0.0177
 2035SOL    HW1 5924   3.925   2.704   3.932 -1.1553 -0.6742  1.2840
 2035SOL    HW2 5925   3.992   2.561   3.888 -0.6966 -0.0820  0.0338
 2036SOL     OW 5926   4.231   2.538   4.391  0.2396  0.1835  0.0354
 2036SOL    HW1 5927   4.210   2.485   4.474  0.4143  0.1529  0.0602
 2036SOL    HW2 5928   4.176   2.504   4.315  1.2349 -0.8692 -0.2575
 2037SOL     OW 5929   1.419   3.896   1.747  0.0450 -0.0438  0.1109
 2037SOL    HW1 5930   1.352   3.949   1.799  1.1633  1.5266  0.0337
 2037SOL    HW2 5931   1.404   3.909   1.650  0.5251  0.4186  0.0938
 2038SOL     OW 5932   1.923   4.560   2.814  0.1642  0.6652  0.5235
 2038SOL    HW1 5933   1.881   4.481   2.857  1.5895 -0.4401 -0.0248
 2038SOL    HW2 5934   1.854   4.613   2.765 -0.9367  0.1953  1.5358
 2039SOL     OW 5935   0.983   0.269   4.494 -0.2246 -0.2877 -0.3080
 2039SOL    HW1 5936   1.000   0.294   4.399  0.5573  1.8574  0.3441
 2039SOL    HW2 5937   0.886   0.246   4.505 -0.4327 -0.0762 -1.5245
 2040SOL     OW 5938   4.119   4.545   3.376  0.1437  0.5310 -0.2921
 2040SOL    HW1 5939   4.215   4.573   3.364  1.0867 -2.1748  0.3060
 2040SOL    HW2 5940   4.094   4.483   3.302 -0.2500 -0.8877  0.9843
 2041SOL     OW 5941   1.829   2.351   4.501  0.2094 -0.3169  0.6401
 2041SOL    HW1 5942   1.847   2.274   4.561  0.6806 -0.9915 -0.3382
 2041SOL    HW2 5943   1.913   2.405   4.491  0.3129 -0.5693  0.0977
 2042SOL     OW 5944   2.171   4.378   0.673 -0.4188  0.1410  0.2023
 2042SOL    HW1 5945   2.133   4.302   0.621 -0.5579  0.5931 -0.3684
 2042SOL    HW2 5946   2.238   4.426   0.618  0.6851 -0.3818  1.0507
 2043SOL     OW 5947   4.528   0.341   1.345  0.6434  0.0804 -0.6959
 2043SOL    HW1 5948   4.593   0.282   1.394 -0.4292  1.1584  2.2457
 2043SOL    HW2 5949   4.443   0.290   1.329  0.7411 -0.0531 -0.7926
 2044SOL     OW 5950   3.390   4.392   3.710  0.0901  0.0759 -0.1947
 2044SOL    HW1 5951   3.294   4.365   3.720 -0.1288 -0.0112 -2.0864
 2044SOL    HW2 5952   3.444   4.354   3.784 -0.9900 -1.6793 -0.2665
 2045SOL     OW 5953   2.968   4.144   3.511 -0.0743  0.6019 -0.2351
 2045SOL    HW1 5954   2.879   4.119   3.548  0.3083 -0.9033 -0.2835
 2045SOL    HW2 5955   3.035   4.146   3.585  0.8213 -3.0024 -0.7718
 2046SOL     OW 5956   1.584   4.755   4.424 -0.0736  0.1569 -0.2561
 2046SOL    HW1 5957   1.487   4.764   4.447  0.2563 -0.5984  1.6390
 2046SOL    HW2 5958   1.614   4.662   4.442  1.0117  0.3837 -0.8222
 2047SOL     OW 5959   1.286   3.674   2.556 -0.4259 -0.1239 -0.1436
 2047SOL    HW1 5960   1.239   3.724   2.483  0.9817 -0.0198 -1.0132
 2047SOL    HW2 5961   1.384   3.673   2.538  0.3637  2.1548  3.0665
 2048SOL     OW 5962   1.714   4.993   2.588  0.2761 -0.2423 -0.3729
 2048SOL    HW1 5963   1.706   4.985   2.489 -0.1060  0.5901 -0.4211
 2048SOL    HW2 5964   1.809   4.980   2.615  0.7434  1.4448 -1.0703
 2049SOL     OW 5965   0.295   0.354   2.970 -0.0800  0.6464 -0.2678
 2049SOL    HW1 5966   0.290   0.296   2.889  0.4185 -0.0624  0.1888
 2049SOL    HW2 5967   0.231   0.320   3.039  2.3904 -1.3562  1.1991
 2050SOL     OW 5968   0.638   0.058   4.660  0.2532  0.4634 -0.1626
 2050SOL    HW1 5969   0.684   0.104   4.584 -0.0149  2.3531  0.7621
 2050SOL    HW2 5970   0.553   0.106   4.682  0.3752  0.0247  1.3857
 2051SOL     OW 5971   2.196   4.079   3.936 -0.5191  0.3328  0.3324
 2051SOL    HW1 5972   2.219   4.017   3.861 -0.9141 -0.3426  0.7564
 2051SOL    HW2 5973   2.269   4.078   4.004 -1.7372 -1.9148  1.7447
 2052SOL     OW 5974   3.377   3.296   2.338  0.0384 -0.1777 -0.3467
 2052SOL    HW1 5975   3.452   3.314   2.402 -0.3351  1.0294 -0.2170
 2052SOL    HW2 5976   3.414   3.263   2.251  0.5943 -1.1949  0.2591
 2053SOL     OW 5977   3.026   2.772   2.103 -0.0211 -0.1694  0.0031
 2053SOL    HW1 5978   2.984   2.788   2.014 -0.0308 -1.5272 -0.2589
 2053SOL    HW2 5979   2.955   2.748   2.170 -0.1213  1.6796  0.6191
 2054SOL     OW 5980   2.192   3.692   4.198 -0.3325  0.3838 -0.0334
 2054SOL    HW1 5981   2.162   3.784   4.225 -1.7514 -0.0828  0.0728
 2054SOL    HW2 5982   2.266   3.663   4.258 -0.2638  1.2282  0.3096
 2055SOL     OW 5983   3.198   0.849   4.296  0.0424  0.6139  0.1922
 2055SOL    HW1 5984   3.215   0.946   4.281  0.9470  0.8986  2.5581
 2055SOL    HW2 5985   3.120   0.820   4.240  0.1247  2.5313 -1.0170
 2056SOL     OW 5986   4.172   2.029   1.008  0.2301 -0.2088 -0.2236
 2056SOL    HW1 5987   4.099   1.987   0.954  1.2253 -2.0754 -0.1983
 2056SOL    HW2 5988   4.181   2.125   0.983  0.3785 -0.8816 -3.1010
 2057SOL     OW 5989   4.597   1.890   4.997 -0.5139  0.2775  0.5355
 2057SOL    HW1 5990   4.563   1.957   4.931  0.1498 -1.4461 -1.7013
 2057SOL    HW2 5991   4.603   1.931   5.087 -1.5945  2.7259 -0.4347
 2058SOL     OW 5992   4.823   3.993   0.104  0.0914  0.4714 -0.5913
 2058SOL    HW1 5993   4.730   4.031   0.097 -0.4564 -0.3555  1.3797
 2058SOL    HW2 5994   4.884   4.062   0.143 -1.2000 -0.7850  4.3357
 2059SOL     OW 5995   4.438   5.009   4.278  0.5005 -0.1430  0.7155
 2059SOL    HW1 5996   4.515   4.983   4.220  0.1289  2.1986 -0.9588
 2059SOL    HW2 5997   4.472   5.045   4.365  1.5810  3.1541 -0.9207
 2060SOL     OW 5998   0.509   0.936   3.012  0.5694  0.0082 -0.1503
 2060SOL    HW1 5999   0.472   0.921   3.103  2.3109  1.9623  0.9679
 2060SOL    HW2 6000   0.468   1.018   2.973  0.8416 -0.0433 -0.5525
 2061SOL     OW 6001   4.179   2.667   4.911  0.7112  0.4901 -0.5657
 2061SOL    HW1 6002   4.208   2.652   5.006 -0.6292 -2.5652 -0.5386
 2061SOL    HW2 6003   4.079   2.671   4.907  0.7261 -0.0435 -1.9263
 2062SOL     OW 6004   2.131   1.344   1.191 -0.4204 -0.6192  0.2063
 2062SOL    HW1 6005   2.074   1.268   1.160 -1.5707  0.2324  0.1426
 2062SOL    HW2 6006   2.101   1.428   1.146  0.1339  0.0503  1.0597
 2063SOL     OW 6007   3.520   3.252   3.511  0.3495 -0.4371  0.6954
 2063SOL    HW1 6008   3.609   3.211   3.491 -0.1457 -1.6919  0.9756
 2063SOL    HW2 6009   3.462   3.246   3.430  1.2650  2.5882 -0.3194
 2064SOL     OW 6010   0.108   1.325   0.822  0.3021 -0.0931 -0.1733
 2064SOL    HW1 6011   0.120   1.373   0.735  0.0418  1.4408  0.6059
 2064SOL    HW2 6012   0.196   1.317   0.868  0.3726 -0.5572 -0.3720
 2065SOL     OW 6013   3.375   0.586   0.947 -0.1644 -0.3653  0.5888
 2065SOL    HW1 6014   3.317   0.607   0.869  0.8293 -0.8922 -0.3121
 2065SOL    HW2 6015   3.409   0.492   0.940  0.1497 -0.3399  1.5204
 2066SOL     OW 6016   3.094   1.142   3.290  0.4447 -0.7551 -0.1862
 2066SOL    HW1 6017   3.162   1.149   3.217 -0.2749 -0.1775 -0.8243
 2066SOL    HW2 6018   3.019   1.082   3.259  0.2438 -0.6836  0.1610
 2067SOL     OW 6019   1.788   4.426   1.287  0.0492  0.0254 -0.3658
 2067SOL    HW1 6020   1.851   4.361   1.329  1.5725  0.5292 -1.7748
 2067SOL    HW2 6021   1.806   4.432   1.189 -2.3656  0.0347 -0.8749
 2068SOL     OW 6022   4.513   1.625   0.756  0.0260  0.0638 -0.0068
 2068SOL    HW1 6023   4.537   1.708   0.805 -2.3235  1.1401 -0.5188
 2068SOL    HW2 6024   4.447   1.572   0.810 -0.5740 -0.0594 -0.8325
 2069SOL     OW 6025   3.049   1.691   2.656  0.0917  0.1465 -0.1540
 2069SOL    HW1 6026   3.145   1.666   2.646  0.2365  0.6857 -0.1010
 2069SOL    HW2 6027   2.994   1.636   2.592  0.4845  0.1703 -0.5184
 2070SOL     OW 6028   4.482   0.451   0.085 -0.0335  0.5917  0.2755
 2070SOL    HW1 6029   4.576   0.432   0.116 -0.8505  0.3269  2.8433
 2070SOL    HW2 6030   4.440   0.518   0.146 -1.7920  0.0471 -0.2807
 2071SOL     OW 6031   4.709   1.819   1.442  0.4880  0.3294 -0.2227
 2071SOL    HW1 6032   4.771   1.807   1.519  0.6454 -1.5738 -0.6064
 2071SOL    HW2 6033   4.639   1.887   1.466 -0.1704 -1.0404  2.0667
 2072SOL     OW 6034   4.772   1.340   3.914  0.5371  0.2364 -0.2456
 2072SOL    HW1 6035   4.735   1.310   4.002 -0.1285  1.0489 -0.2418
 2072SOL    HW2 6036   4.792   1.437   3.917 -0.3083  0.4579 -1.2573
 2073SOL     OW 6037   3.275   3.985   3.922  0.2391  0.5398 -0.2070
 2073SOL    HW1 6038   3.284   4.077   3.958  0.9615 -0.0096  1.0564
 2073SOL    HW2 6039   3.292   3.918   3.994  2.4398 -0.6128 -1.6683
 2074SOL     OW 6040   1.929   2.025   1.792 -0.0270 -0.4376  0.4669
 2074SOL    HW1 6041   1.870   1.950   1.762 -1.1758  1.0308 -1.1102
 2074SOL    HW2 6042   1.972   2.000   1.879 -2.2856 -1.9067  1.2660
 2075SOL     OW 6043   3.138   1.141   4.520 -0.4563  0.3071  0.4383
 2075SOL    HW1 6044   3.201   1.192   4.578 -1.6241 -0.1078  2.1556
 2075SOL    HW2 6045   3.116   1.053   4.563 -0.4294 -0.5724 -1.2382
 2076SOL     OW 6046   3.347   1.120   3.630 -0.4206 -0.2724 -0.3871
 2076SOL    HW1 6047   3.256   1.098   3.596 -0.5706 -1.5504  0.7521
 2076SOL    HW2 6048   3.349   1.111   3.730  0.9485 -0.2608 -0.3848
 2077SOL     OW 6049   2.477   0.116   0.924 -0.0325  0.1437  0.5764
 2077SOL    HW1 6050   2.471   0.020   0.951 -1.7925  0.1175  0.2239
 2077SOL    HW2 6051   2.426   0.130   0.839  0.5512  1.3153  0.4065
 2078SOL     OW 6052   2.240   0.095   4.891 -0.3172  0.2136  0.0556
 2078SOL    HW1 6053   2.183   0.164   4.847 -0.2005  0.3496  0.1186
 2078SOL    HW2 6054   2.328   0.089   4.843 -0.6788 -0.5601 -0.5483
 2079SOL     OW 6055   3.344   4.241   4.663  0.6452 -1.0422 -0.1261
 2079SOL    HW1 6056   3.327   4.158   4.716  1.2976 -0.2312  1.4153
 2079SOL    HW2 6057   3.285   4.314   4.696  1.7939 -0.2373  0.2202
 2080SOL     OW 6058   0.932   4.482   1.330 -0.5515  0.1482 -0.1352
 2080SOL    HW1 6059   0.866   4.443   1.264  0.2640 -1.4847 -0.0452
 2080SOL    HW2 6060   1.023   4.447   1.309  0.0577  1.2380  0.6352
 2081SOL     OW 6061   4.022   1.235   3.980 -0.4841 -0.1735 -0.5535
 2081SOL    HW1 6062   4.017   1.221   4.078  0.4458  0.7849 -0.3459
 2081SOL    HW2 6063   3.935   1.272   3.947  0.0488  2.1801  0.4189
 2082SOL     OW 6064   2.465   0.873   2.366  0.4115 -0.0455  0.2956
 2082SOL    HW1 6065   2.444   0.898   2.271  0.8127  0.6561  0.3846
 2082SOL    HW2 6066   2.474   0.774   2.373  0.4638 -0.0966 -0.4166
 2083SOL     OW 6067   2.440   2.577   4.791 -0.4854 -0.6125  0.2929
 2083SOL    HW1 6068   2.375   2.502   4.805 -1.8937  0.2492 -1.2997
 2083SOL    HW2 6069   2.485   2.565   4.702  1.9575 -1.4472  1.5596
 2084SOL     OW 6070   3.979   3.455   4.496  0.5737  0.2546 -0.2363
 2084SOL    HW1 6071   4.078   3.461   4.495  0.5967  0.5628  1.2210
 2084SOL    HW2 6072   3.950   3.402   4.575 -0.4082 -0.5403 -1.0972
 2085SOL     OW 6073   0.965   1.853   3.313  0.0145 -0.3831  0.1067
 2085SOL    HW1 6074   0.999   1.926   3.254 -0.0355 -0.0393  0.4989
 2085SOL    HW2 6075   1.042   1.801   3.349  0.1651  0.5091  1.1410
 2086SOL     OW 6076   3.955   2.055   3.146  0.1598  0.5053 -0.5074
 2086SOL    HW1 6077   3.891   2.056   3.069  0.4298  1.4848 -0.7299
 2086SOL    HW2 6078   3.904   2.039   3.231 -0.1215 -0.7385 -0.8851
 2087SOL     OW 6079   0.828   3.411   4.489  0.1204 -0.4698  0.3626
 2087SOL    HW1 6080   0.773   3.392   4.408 -0.7980  0.0171  0.8624
 2087SOL    HW2 6081   0.836   3.510   4.502  0.5797 -0.5395  0.6652
 2088SOL     OW 6082   3.465   1.295   3.928 -0.6072  0.2046 -0.2094
 2088SOL    HW1 6083   3.511   1.347   3.856 -0.1087 -1.3856 -1.1134
 2088SOL    HW2 6084   3.502   1.320   4.017  0.8053  0.2263 -0.7679
 2089SOL     OW 6085   2.349   2.186   2.866  0.6699 -0.3824  0.1483
 2089SOL    HW1 6086   2.377   2.218   2.956  0.5813  0.8418 -0.2388
 2089SOL    HW2 6087   2.387   2.247   2.796 -1.6669  0.4567 -0.4790
 2090SOL     OW 6088   2.008   0.708   3.385  0.1866  0.0548  0.0334
 2090SOL    HW1 6089   1.975   0.802   3.374  1.1369  0.4865  0.7087
 2090SOL    HW2 6090   1.965   0.667   3.465 -0.8427 -0.3817 -0.7255
 2091SOL     OW 6091   1.690   1.505   2.201 -0.4127  0.2674  0.1321
 2091SOL    HW1 6092   1.736   1.518   2.289  0.2121  0.8327 -0.2742
 2091SOL    HW2 6093   1.705   1.585   2.143 -3.3190  1.2932  0.6001
 2092SOL     OW 6094   3.584   2.035   3.576 -0.4276 -0.1691 -0.4659
 2092SOL    HW1 6095   3.574   2.025   3.477 -0.4587 -1.3346 -0.3539
 2092SOL    HW2 6096   3.617   1.949   3.616  3.4878  1.3916  0.0607
 2093SOL     OW 6097   3.365   1.280   0.163  0.3457  0.1715  0.0329
 2093SOL    HW1 6098   3.270   1.309   0.163 -0.1773 -1.2550 -2.0709
 2093SOL    HW2 6099   3.423   1.353   0.127 -0.0064  0.8458  0.8139
 2094SOL     OW 6100   3.332   0.673   1.422 -0.1908  0.3917 -0.0022
 2094SOL    HW1 6101   3.371   0.765   1.414  0.1112  0.1869 -1.0999
 2094SOL    HW2 6102   3.241   0.678   1.463  0.2612  1.0611  0.9492
 2095SOL     OW 6103   1.661   3.887   4.422 -0.2423 -0.1870  0.1049
 2095SOL    HW1 6104   1.748   3.924   4.391 -0.7005  0.9592  0.1345
 2095SOL    HW2 6105   1.672   3.847   4.513  0.0950  0.6452  0.4379
 2096SOL     OW 6106   5.038   1.534   0.961  0.1568 -0.7288 -0.3487
 2096SOL    HW1 6107   5.090   1.510   1.043 -0.4355 -0.5503  0.0882
 2096SOL    HW2 6108   5.040   1.457   0.897  0.6303 -0.8698 -0.1664
 2097SOL     OW 6109   3.613   3.497   4.845 -0.5502  0.1027  0.2601
 2097SOL    HW1 6110   3.666   3.564   4.793 -0.0081 -0.5259 -0.0125
 2097SOL    HW2 6111   3.675   3.445   4.904 -0.6569 -1.4278 -0.9028
 2098SOL     OW 6112   3.067   3.762   1.755  0.7398  0.5866  0.6484
 2098SOL    HW1 6113   2.986   3.740   1.700  2.4118  1.0784 -2.2578
 2098SOL    HW2 6114   3.066   3.859   1.779  0.9912  0.8664 -0.4128
 2099SOL     OW 6115   0.123   1.295   3.294  0.1944  0.1084 -0.0132
 2099SOL    HW1 6116   0.031   1.321   3.264  0.7552  2.2573 -0.0249
 2099SOL    HW2 6117   0.122   1.275   3.392 -0.3629 -0.4061 -0.1144
 2100SOL     OW 6118   1.881   4.208   4.855  0.2801  0.3314 -0.3331
 2100SOL    HW1 6119   1.865   4.126   4.910  0.0348  0.8014  0.3151
 2100SOL    HW2 6120   1.830   4.202   4.769 -1.7918  0.8911  0.7853
 2101SOL     OW 6121   4.536   0.219   2.536  0.7906 -0.3861 -0.7278
 2101SOL    HW1 6122   4.583   0.205   2.624 -0.3158 -2.0376 -0.3401
 2101SOL    HW2 6123   4.575   0.157   2.468 -0.1676 -1.0839 -0.6531
 2102SOL     OW 6124   3.648   1.306   4.744 -0.1167 -0.0072  0.3975
 2102SOL    HW1 6125   3.600   1.299   4.832  2.1106 -0.2332  1.6605
 2102SOL    HW2 6126   3.599   1.371   4.685 -2.2870 -0.6784  1.3295
 2103SOL     OW 6127   1.005   0.828   0.045 -0.1407 -0.2519  0.1646
 2103SOL    HW1 6128   0.997   0.731   0.065  2.1771 -0.8402 -1.4423
 2103SOL    HW2 6129   1.008   0.842  -0.054 -0.7068  1.5192  0.3488
 2104SOL     OW 6130   4.921   2.216   4.594  0.7324 -0.1723  0.1002
 2104SOL    HW1 6131   4.863   2.284   4.550  0.5082  0.2718  1.0526
 2104SOL    HW2 6132   4.994   2.262   4.645  0.9196 -0.6636  0.2876
 2105SOL     OW 6133   3.361   1.236   2.782  0.4865 -0.2785 -0.6394
 2105SOL    HW1 6134   3.336   1.332   2.793 -0.8413 -0.6389 -0.4366
 2105SOL    HW2 6135   3.443   1.217   2.835 -0.2855  0.3160  0.8034
 2106SOL     OW 6136   1.306   3.542   2.851 -0.5364  0.2479  0.0940
 2106SOL    HW1 6137   1.211   3.512   2.864 -0.4403  0.1552  0.6352
 2106SOL    HW2 6138   1.312   3.599   2.769 -0.9864 -0.0620 -0.1586
 2107SOL     OW 6139   4.821   0.631   4.231 -0.2675 -0.4281  0.1509
 2107SOL    HW1 6140   4.759   0.623   4.309 -0.1896 -0.8879  0.1632
 2107SOL    HW2 6141   4.839   0.541   4.192  2.4584 -0.6906  1.7387
 2108SOL     OW 6142   1.875   1.425   1.767 -0.1429 -0.0388  0.5953
 2108SOL    HW1 6143   1.822   1.493   1.816 -1.6741 -1.3425  0.8260
 2108SOL    HW2 6144   1.824   1.339   1.764  1.3814 -0.9506 -0.3752
 2109SOL     OW 6145   3.443   4.518   0.249 -0.4317  0.9354 -0.6532
 2109SOL    HW1 6146   3.404   4.432   0.283  1.2705  1.0802  1.8556
 2109SOL    HW2 6147   3.371   4.569   0.201 -2.6003 -0.0181  1.3718
 2110SOL     OW 6148   1.014   3.341   2.436  0.1508  0.6290 -0.5309
 2110SOL    HW1 6149   0.989   3.409   2.505 -1.3544  0.0828 -0.5022
 2110SOL    HW2 6150   0.932   3.316   2.383 -0.0018 -3.1605  1.2514
 2111SOL     OW 6151   1.654   2.538   4.579 -0.1269  0.2451  0.0596
 2111SOL    HW1 6152   1.716   2.605   4.619  1.6046 -0.7006 -0.9381
 2111SOL    HW2 6153   1.704   2.481   4.514 -1.8888 -1.0521 -0.2213
 2112SOL     OW 6154   0.934   4.881   0.561  0.1104 -0.2743  0.2517
 2112SOL    HW1 6155   1.019   4.834   0.583 -0.1455 -0.8292  0.0932
 2112SOL    HW2 6156   0.909   4.861   0.466 -0.6432 -0.8351  0.5569
 2113SOL     OW 6157   4.452   2.904   3.614 -0.6221 -0.4738  0.3369
 2113SOL    HW1 6158   4.494   2.965   3.680 -0.0252 -0.3337 -0.1627
 2113SOL    HW2 6159   4.505   2.820   3.608 -0.8600 -0.6211  0.2739
 2114SOL     OW 6160   0.871   1.537   3.622  0.1785  0.7066  0.3023
 2114SOL    HW1 6161   0.883   1.635   3.608 -0.2797  0.6553 -0.4997
 2114SOL    HW2 6162   0.954   1.499   3.664  0.4168  1.4040  0.4732
 2115SOL     OW 6163   0.119   2.720   3.473 -0.1962 -0.3698  0.2552
 2115SOL    HW1 6164   0.196   2.760   3.421  2.2722 -0.7304  3.3446
 2115SOL    HW2 6165   0.095   2.781   3.548 -2.6144 -0.5935 -0.2740
 2116SOL     OW 6166   4.288   1.942   0.113  0.2311  0.0030  0.6854
 2116SOL    HW1 6167   4.260   1.963   0.020  1.4955 -1.5964 -0.1059
 2116SOL    HW2 6168   4.378   1.982   0.131 -0.5812  1.4533  1.7177
 2117SOL     OW 6169   1.828   3.571   4.423 -0.1345  0.2975  0.1892
 2117SOL    HW1 6170   1.770   3.604   4.349 -1.6824  0.1931  1.2960
 2117SOL    HW2 6171   1.807   3.475   4.442  2.1186 -0.4946 -0.9334
 2118SOL     OW 6172   4.989   0.731   0.917 -0.4735  0.3464 -0.0419
 2118SOL    HW1 6173   5.045   0.697   0.993  0.4666 -0.1345 -0.9090
 2118SOL    HW2 6174   4.975   0.830   0.927  1.5634  0.7170 -0.3930
 2119SOL     OW 6175   0.849   3.032   3.401 -0.4443  0.1130 -0.0656
 2119SOL    HW1 6176   0.911   3.028   3.323  0.8908 -0.0584  0.9597
 2119SOL    HW2 6177   0.794   2.948   3.404  0.0057 -0.2003 -0.4218
 2120SOL     OW 6178   1.339   2.732   2.209 -0.2722  0.3326  0.0980
 2120SOL    HW1 6179   1.323   2.712   2.305  0.7096  0.1658  0.2318
 2120SOL    HW2 6180   1.380   2.823   2.200  0.1019  0.1443 -0.1205
 2121SOL     OW 6181   0.801   2.401   4.150  0.0686 -0.8769 -0.2274
 2121SOL    HW1 6182   0.891   2.361   4.164 -0.0075 -0.8919  0.2639
 2121SOL    HW2 6183   0.739   2.368   4.222 -0.3492 -0.9296 -0.6047
 2122SOL     OW 6184   2.822   3.878   2.683 -0.2153 -0.0013  0.5675
 2122SOL    HW1 6185   2.870   3.826   2.612  0.0507  1.0270 -0.0285
 2122SOL    HW2 6186   2.886   3.899   2.757 -0.0414  0.3309  0.3315
 2123SOL     OW 6187   1.848   0.417   0.834 -0.4054  0.6908  0.1106
 2123SOL    HW1 6188   1.918   0.466   0.886  0.0192  1.0547 -0.7793
 2123SOL    HW2 6189   1.861   0.435   0.737 -3.1778  2.7255  0.0136
 2124SOL     OW 6190   2.082   3.496   3.580 -0.3579  0.2904  0.1104
 2124SOL    HW1 6191   2.030   3.417   3.548  1.0177 -1.0008  0.9519
 2124SOL    HW2 6192   2.125   3.542   3.503 -0.9601  0.0816 -0.3539
 2125SOL     OW 6193   0.969   4.189   0.046  0.3150  0.1397  0.2079
 2125SOL    HW1 6194   1.001   4.137   0.125  2.8082  2.3996  0.8381
 2125SOL    HW2 6195   0.915   4.129  -0.014 -0.1424 -2.0948  2.6721
 2126SOL     OW 6196   2.621   2.157   2.400 -0.1448 -0.5113  0.0877
 2126SOL    HW1 6197   2.522   2.169   2.393 -0.0090 -0.1654 -3.1459
 2126SOL    HW2 6198   2.648   2.076   2.348  1.3131 -0.3060  0.4823
 2127SOL     OW 6199   1.429   0.986   4.932 -0.1587 -0.0518 -0.6717
 2127SOL    HW1 6200   1.347   1.008   4.880 -1.7787 -1.1917  1.2369
 2127SOL    HW2 6201   1.459   0.894   4.910  0.2977  0.1605 -0.9555
 2128SOL     OW 6202   0.312   2.977   0.981 -0.1092 -0.0308 -0.0784
 2128SOL    HW1 6203   0.321   2.960   1.080  2.3984  2.2922  0.2020
 2128SOL    HW2 6204   0.250   3.054   0.967 -0.1018 -0.0689 -0.3100
 2129SOL     OW 6205   3.507   1.441   0.009 -0.1296  0.1623  0.2039
 2129SOL    HW1 6206   3.604   1.466   0.007  0.0808 -0.2597  2.3582
 2129SOL    HW2 6207   3.452   1.521  -0.016  0.7128  1.2003  1.5245
 2130SOL     OW 6208   4.399   0.662   4.528  0.6043  0.1969  0.4318
 2130SOL    HW1 6209   4.317   0.608   4.507  1.1009 -0.4476  0.1052
 2130SOL    HW2 6210   4.397   0.690   4.624  0.7511 -1.1267  0.8334
 2131SOL     OW 6211   3.946   4.976   4.028 -0.2360  0.0952  0.0231
 2131SOL    HW1 6212   3.990   4.972   4.118 -1.4009 -0.6662  0.5845
 2131SOL    HW2 6213   3.957   4.888   3.982  0.7515  0.6277 -0.7966
 2132SOL     OW 6214   0.395   0.918   3.268 -0.0500 -0.8689  0.5699
 2132SOL    HW1 6215   0.453   0.884   3.342 -1.1124 -0.7550  1.4838
 2132SOL    HW2 6216   0.307   0.870   3.269 -0.7026  0.2792  0.4210
 2133SOL     OW 6217   4.698   3.638   2.717 -0.3219  0.5186 -0.2385
 2133SOL    HW1 6218   4.706   3.539   2.707 -1.3189  0.5235 -1.3760
 2133SOL    HW2 6219   4.649   3.659   2.802 -1.4080 -0.0323 -0.7143
 2134SOL     OW 6220   1.941   4.114   1.102 -0.0845 -0.4471  0.1051
 2134SOL    HW1 6221   1.843   4.102   1.087 -0.3056  1.3190 -0.0795
 2134SOL    HW2 6222   1.990   4.032   1.073 -1.4486 -1.1223 -0.3567
 2135SOL     OW 6223   3.935   3.991   2.747  0.4355 -0.0958 -0.1844
 2135SOL    HW1 6224   3.993   4.022   2.822  0.8611  2.5401 -1.4795
 2135SOL    HW2 6225   3.892   4.070   2.703 -2.7147 -1.8128 -0.4673
 2136SOL     OW 6226   2.915   3.651   3.057  0.3698  0.1215  0.0701
 2136SOL    HW1 6227   2.977   3.726   3.078  0.2967  0.1366  0.2401
 2136SOL    HW2 6228   2.932   3.618   2.964 -0.4524  1.1916 -0.4876
 2137SOL     OW 6229   3.123   4.700   4.570  0.5093 -0.3742  0.3207
 2137SOL    HW1 6230   3.187   4.777   4.570  1.0923 -0.8402 -0.3824
 2137SOL    HW2 6231   3.029   4.734   4.568  0.7205  0.4104 -3.2393
 2138SOL     OW 6232   2.602   1.847   3.521  0.1254 -0.5023 -0.8723
 2138SOL    HW1 6233   2.530   1.783   3.492 -1.0246  0.1483  0.3862
 2138SOL    HW2 6234   2.669   1.798   3.576 -1.2505 -0.5305  0.8917
 2139SOL     OW 6235   3.627   2.399   2.648 -0.0621 -0.2338  0.0059
 2139SOL    HW1 6236   3.651   2.484   2.693  1.4590 -0.1886 -0.8302
 2139SOL    HW2 6237   3.637   2.323   2.712  0.4523  0.0138  0.2235
 2140SOL     OW 6238   1.576   1.223   4.563 -0.1097 -0.4281  0.0730
 2140SOL    HW1 6239   1.601   1.193   4.655  0.3740  0.3709  0.2079
 2140SOL    HW2 6240   1.575   1.323   4.559  1.1255 -0.4212 -1.1061
 2141SOL     OW 6241   4.121   3.606   2.456  0.2115 -0.2371 -0.6240
 2141SOL    HW1 6242   4.153   3.542   2.387  0.5835  0.0782 -0.7448
 2141SOL    HW2 6243   4.022   3.596   2.467  0.2962 -0.9897 -0.4747
 2142SOL     OW 6244   1.706   4.143   4.002 -0.7653 -0.3915 -0.7299
 2142SOL    HW1 6245   1.787   4.168   3.950 -0.4383  2.7741  1.1175
 2142SOL    HW2 6246   1.718   4.051   4.040  1.9507  0.0111 -0.4481
 2143SOL     OW 6247   4.679   0.171   2.769 -0.5638 -0.0416 -0.1725
 2143SOL    HW1 6248   4.691   0.262   2.808 -0.5950 -0.0846 -0.0593
 2143SOL    HW2 6249   4.768   0.129   2.752 -0.5476 -0.3023  0.5233
 2144SOL     OW 6250   3.631   3.337   1.456 -0.7340 -0.8369  0.1382
 2144SOL    HW1 6251   3.576   3.306   1.378 -0.6323  0.1042 -0.3257
 2144SOL    HW2 6252   3.572   3.348   1.536 -1.2746  0.2709 -0.3844
 2145SOL     OW 6253   2.188   0.551   2.069  0.1431 -0.4536 -0.5675
 2145SOL    HW1 6254   2.274   0.512   2.102 -0.1004  0.1937  0.9460
 2145SOL    HW2 6255   2.137   0.588   2.147 -1.3299 -0.4682 -1.4906
 2146SOL     OW 6256   0.630   0.445   2.074 -0.3666 -0.2273 -0.0367
 2146SOL    HW1 6257   0.661   0.484   1.988 -0.4786 -1.4731 -0.6583
 2146SOL    HW2 6258   0.659   0.349   2.080 -0.0031 -0.0489  1.4923
 2147SOL     OW 6259   3.149   0.157   3.283 -0.0809 -0.2081  0.0772
 2147SOL    HW1 6260   3.087   0.176   3.359  0.9589 -1.6143  1.3528
 2147SOL    HW2 6261   3.097   0.145   3.199 -1.1328  3.3970  0.0540
 2148SOL     OW 6262   2.045   1.145   4.165 -0.2482 -0.0436 -0.2026
 2148SOL    HW1 6263   1.993   1.096   4.094  1.0484 -3.0117  0.7510
 2148SOL    HW2 6264   2.061   1.084   4.243  2.1127  1.7122  0.8028
 2149SOL     OW 6265   2.642   4.687   4.683  0.0248  0.9613 -0.0853
 2149SOL    HW1 6266   2.582   4.662   4.758  0.4977 -0.2205 -0.0889
 2149SOL    HW2 6267   2.730   4.719   4.719  0.7970 -1.0111 -0.1269
 2150SOL     OW 6268   0.613   1.573   1.629  0.2825  0.1963 -0.3333
 2150SOL    HW1 6269   0.642   1.493   1.682  1.7371  0.2684 -0.9626
 2150SOL    HW2 6270   0.547   1.626   1.682  3.6429  1.7800  2.7223
 2151SOL     OW 6271   3.957   4.234   0.058 -0.3457  0.0713  0.3575
 2151SOL    HW1 6272   3.915   4.216   0.147  1.2717 -1.5477  0.8522
 2151SOL    HW2 6273   4.052   4.262   0.071 -0.4171  0.9278 -0.8340
 2152SOL     OW 6274   3.730   0.907   2.247 -0.6150 -0.0747 -0.8742
 2152SOL    HW1 6275   3.681   0.851   2.180 -2.3238  4.4237 -3.8860
 2152SOL    HW2 6276   3.827   0.913   2.221 -0.7286 -0.4203 -1.4056
 2153SOL     OW 6277   2.267   1.347   3.734 -0.2982 -0.0147 -0.1826
 2153SOL    HW1 6278   2.331   1.321   3.806 -0.3255  2.5894  0.8695
 2153SOL    HW2 6279   2.310   1.330   3.645  0.3748 -1.7180  0.4157
 2154SOL     OW 6280   0.579   0.107   1.965 -0.0265 -0.7889 -0.9754
 2154SOL    HW1 6281   0.671   0.112   1.929 -0.1485 -0.7940 -1.2898
 2154SOL    HW2 6282   0.579   0.131   2.063  0.0749  0.7705 -1.3306
 2155SOL     OW 6283   5.006   3.861   4.884  0.2748  0.1982  0.4958
 2155SOL    HW1 6284   5.056   3.939   4.921  0.1385  1.0705 -1.0735
 2155SOL    HW2 6285   4.908   3.882   4.881  0.2160 -0.1066  0.2234
 2156SOL     OW 6286   3.908   2.772   4.640 -0.6379 -0.0125 -0.5354
 2156SOL    HW1 6287   3.986   2.802   4.585 -0.0428 -1.0005 -0.2643
 2156SOL    HW2 6288   3.834   2.742   4.580 -0.1435 -0.7058 -0.8170
 2157SOL     OW 6289   4.501   3.917   0.923 -0.5312  0.0596  0.7973
 2157SOL    HW1 6290   4.547   3.861   0.854  0.1376  0.8968  0.5492
 2157SOL    HW2 6291   4.515   4.013   0.902 -1.6493  0.3351  1.2341
 2158SOL     OW 6292   4.667   3.183   0.546  0.3271 -0.3981  0.0378
 2158SOL    HW1 6293   4.653   3.281   0.562  1.8356 -0.2598  0.6259
 2158SOL    HW2 6294   4.617   3.130   0.614 -0.2863 -0.0300 -0.1236
 2159SOL     OW 6295   0.189   3.933   4.523 -0.0905  0.0806 -0.3833
 2159SOL    HW1 6296   0.258   3.919   4.594 -1.2726 -0.3707  0.7062
 2159SOL    HW2 6297   0.143   4.020   4.538 -0.2698  0.0380 -0.6771
 2160SOL     OW 6298   0.495   1.000   1.875 -0.1313  0.3466  0.2180
 2160SOL    HW1 6299   0.554   1.012   1.795  0.6229  0.7621  0.8255
 2160SOL    HW2 6300   0.477   1.089   1.917  1.6767 -0.0881  2.0546
 2161SOL     OW 6301   3.365   4.030   4.825 -0.5086  0.4494 -0.4744
 2161SOL    HW1 6302   3.358   4.052   4.923 -1.2867 -0.5065 -0.2899
 2161SOL    HW2 6303   3.457   4.049   4.793  0.5474 -1.6386  1.0859
 2162SOL     OW 6304   4.308   2.553   4.672  0.0017 -0.2809  0.3272
 2162SOL    HW1 6305   4.349   2.613   4.603  0.1504 -0.8835 -0.1297
 2162SOL    HW2 6306   4.273   2.607   4.748 -0.1965  0.4070 -0.2408
 2163SOL     OW 6307   0.865   2.996   1.498 -0.9931  0.3518 -0.1401
 2163SOL    HW1 6308   0.813   3.080   1.514  0.4400  1.7199 -2.2515
 2163SOL    HW2 6309   0.943   3.016   1.438  0.2484 -2.2141  0.5090
 2164SOL     OW 6310   0.309   0.640   0.333 -0.5894  0.1053  0.2122
 2164SOL    HW1 6311   0.216   0.648   0.368 -0.3351  2.2571  0.5283
 2164SOL    HW2 6312   0.358   0.569   0.384 -1.9705 -0.9273  0.1605
 2165SOL     OW 6313   2.589   3.673   4.674 -0.0512 -0.1481 -0.1080
 2165SOL    HW1 6314   2.494   3.673   4.641 -0.5071 -2.4883  1.0203
 2165SOL    HW2 6315   2.594   3.725   4.760  0.1558  1.7158 -1.1905
 2166SOL     OW 6316   0.067   4.428   1.153 -0.1051  0.7784  0.2575
 2166SOL    HW1 6317   0.076   4.506   1.214  0.7548  1.7398 -1.0542
 2166SOL    HW2 6318   0.128   4.354   1.184 -0.6048  0.7682  1.2512
 2167SOL     OW 6319   3.678   3.534   3.883  0.0608 -0.1221  0.0808
 2167SOL    HW1 6320   3.775   3.514   3.872 -0.0805  0.1233 -2.0316
 2167SOL    HW2 6321   3.654   3.616   3.831 -1.5131 -0.9605 -0.6150
 2168SOL     OW 6322   2.327   0.111   0.694  0.4916 -0.6552 -0.6364
 2168SOL    HW1 6323   2.389   0.132   0.618 -0.6749 -0.8991 -1.6753
 2168SOL    HW2 6324   2.237   0.149   0.676 -0.2505 -2.0893 -0.1408
 2169SOL     OW 6325   1.756   1.204   2.520 -0.6198  0.7718  0.6724
 2169SOL    HW1 6326   1.806   1.212   2.434 -2.5865 -1.6341 -0.8256
 2169SOL    HW2 6327   1.792   1.127   2.573 -0.9990  0.7104  0.8471
 2170SOL     OW 6328   4.297   3.982   1.886 -0.4436  0.4319  0.1918
 2170SOL    HW1 6329   4.364   3.971   1.813 -0.4253  0.2820  0.2328
 2170SOL    HW2 6330   4.317   4.066   1.937 -0.6403  0.7061 -0.1710
 2171SOL     OW 6331   0.076   1.901   4.359  0.3401 -0.3203 -0.2199
 2171SOL    HW1 6332   0.126   1.904   4.446  1.6290  0.6043 -0.9764
 2171SOL    HW2 6333   0.124   1.841   4.295 -0.2844 -0.5211 -0.5102
 2172SOL     OW 6334   0.386   4.842   0.768 -0.2042 -0.5510 -0.1915
 2172SOL    HW1 6335   0.295   4.820   0.733  0.1443  0.5082 -1.8908
 2172SOL    HW2 6336   0.379   4.885   0.858 -1.2141 -2.3897  0.6604
 2173SOL     OW 6337   3.026   1.148   0.951  0.4142 -0.6211  0.4095
 2173SOL    HW1 6338   3.079   1.085   0.895 -0.2921 -1.2236  0.4116
 2173SOL    HW2 6339   3.089   1.208   1.001  1.1201 -1.7116  0.8656
 2174SOL     OW 6340   3.238   3.591   1.937 -0.2029  0.4880  0.2351
 2174SOL    HW1 6341   3.150   3.630   1.909 -1.0689 -0.8381  0.9840
 2174SOL    HW2 6342   3.275   3.644   2.013 -0.7998  0.5420  0.4932
 2175SOL     OW 6343   3.842   0.147   4.969  0.2327 -0.4403 -0.1517
 2175SOL    HW1 6344   3.876   0.159   5.062  0.1728 -0.3611 -0.1402
 2175SOL    HW2 6345   3.911   0.179   4.904  0.9921 -2.0707 -0.1932
 2176SOL     OW 6346   0.496   3.133   4.527  0.0166 -0.4030  1.1028
 2176SOL    HW1 6347   0.516   3.153   4.431 -1.7822 -2.1180  0.3097
 2176SOL    HW2 6348   0.478   3.218   4.576 -0.5703  0.4096 -0.4534
 2177SOL     OW 6349   3.305   1.547   2.374 -0.0186 -0.2573 -0.2597
 2177SOL    HW1 6350   3.292   1.450   2.397 -0.8475 -0.8781 -2.9181
 2177SOL    HW2 6351   3.402   1.566   2.364  0.2051 -0.5654  1.1365
 2178SOL     OW 6352   4.969   3.512   1.687  0.2544 -0.3182 -0.3684
 2178SOL    HW1 6353   5.037   3.483   1.620 -0.1366 -0.3933 -0.7429
 2178SOL    HW2 6354   5.013   3.559   1.763  0.4054  3.7145 -2.6951
 2179SOL     OW 6355   3.252   4.659   0.101 -0.3224 -0.0335  0.2815
 2179SOL    HW1 6356   3.190   4.668   0.179  0.0457 -1.6190  0.8015
 2179SOL    HW2 6357   3.316   4.735   0.100 -0.5867  0.2234  1.3015
 2180SOL     OW 6358   1.571   4.568   1.312 -0.2483  0.5744 -0.5935
 2180SOL    HW1 6359   1.560   4.610   1.222 -0.9635 -1.0342 -1.3051
 2180SOL    HW2 6360   1.662   4.529   1.320 -0.4779 -0.0709 -1.0035
 2181SOL     OW 6361   3.762   1.244   1.488 -0.3369  0.3985 -0.0319
 2181SOL    HW1 6362   3.671   1.275   1.459 -0.0122  1.4120 -0.0122
 2181SOL    HW2 6363   3.801   1.185   1.418  0.1711  2.3074 -1.4364
 2182SOL     OW 6364   3.039   3.453   0.852  0.0342 -0.1603  0.3589
 2182SOL    HW1 6365   2.978   3.475   0.928 -1.7602  1.1178 -1.3594
 2182SOL    HW2 6366   3.022   3.359   0.822  0.8201 -0.7005  1.5660
 2183SOL     OW 6367   2.458   4.543   4.851  0.3860 -0.1042  0.2376
 2183SOL    HW1 6368   2.369   4.579   4.825  0.1854 -0.0597  0.9508
 2183SOL    HW2 6369   2.465   4.447   4.824  0.6089  0.2236 -0.9340
 2184SOL     OW 6370   3.895   3.220   3.696 -0.2763  0.1600 -0.1577
 2184SOL    HW1 6371   3.908   3.136   3.748  1.0622  0.7861  0.5604
 2184SOL    HW2 6372   3.844   3.199   3.612 -2.2388 -0.9127  1.2208
 2185SOL     OW 6373   4.763   3.565   3.393 -0.1453 -0.1336 -0.8235
 2185SOL    HW1 6374   4.731   3.657   3.418 -0.8538 -0.4292 -0.6130
 2185SOL    HW2 6375   4.694   3.520   3.337  0.4572 -0.3287 -1.4224
 2186SOL     OW 6376   2.410   4.863   3.871 -0.4948 -0.0763 -0.1013
 2186SOL    HW1 6377   2.480   4.933   3.882  0.4059 -0.9249 -0.3094
 2186SOL    HW2 6378   2.320   4.906   3.868 -0.1387  0.8954  1.9541
 2187SOL     OW 6379   1.678   0.626   0.845 -0.2258  0.4503 -0.9338
 2187SOL    HW1 6380   1.743   0.550   0.842 -0.5427  0.1387 -0.2537
 2187SOL    HW2 6381   1.719   0.707   0.804  0.1749 -0.0487 -1.5308
 2188SOL     OW 6382   4.389   0.284   1.947  0.6750  0.7637 -0.2047
 2188SOL    HW1 6383   4.322   0.351   1.980  0.6136  1.4565 -1.6575
 2188SOL    HW2 6384   4.479   0.328   1.941  0.9935  0.2200  0.4359
 2189SOL     OW 6385   2.219   0.259   3.079 -0.4438 -0.2181 -0.0299
 2189SOL    HW1 6386   2.155   0.245   3.154 -1.4443  1.7634 -0.4416
 2189SOL    HW2 6387   2.188   0.335   3.022  1.8355  0.2586 -0.7526
 2190SOL     OW 6388   1.836   3.552   0.786 -0.0565 -0.2299  0.7306
 2190SOL    HW1 6389   1.866   3.493   0.710  1.1024  3.2421 -1.7610
 2190SOL    HW2 6390   1.736   3.557   0.786 -0.1071 -0.9002 -0.1026
 2191SOL     OW 6391   1.861   0.135   3.106 -0.5718 -0.3645 -0.1724
 2191SOL    HW1 6392   1.814   0.196   3.041  2.7213  0.9776 -1.5112
 2191SOL    HW2 6393   1.900   0.058   3.056  1.1730  0.1614  0.3195
 2192SOL     OW 6394   0.483   2.520   4.572  0.1923 -0.6413  0.0555
 2192SOL    HW1 6395   0.425   2.591   4.612 -0.1273  0.1246 -1.6961
 2192SOL    HW2 6396   0.466   2.433   4.619 -0.2145  0.1699  1.5000
 2193SOL     OW 6397   4.782   4.642   3.528  0.1853 -0.8018 -0.6402
 2193SOL    HW1 6398   4.810   4.653   3.624  0.2117  0.2081 -0.7490
 2193SOL    HW2 6399   4.846   4.690   3.469 -0.8666  0.2154 -1.0071
 2194SOL     OW 6400   0.075   0.961   0.517 -0.1607 -0.3237 -0.1660
 2194SOL    HW1 6401   0.111   1.033   0.457  1.4185 -0.9217  0.0194
 2194SOL    HW2 6402   0.011   1.002   0.583  1.1489  1.0428  0.3265
 2195SOL     OW 6403   0.091   4.455   0.578 -0.2729 -0.4096  0.4326
 2195SOL    HW1 6404   0.183   4.475   0.613 -0.5722  1.0192  0.4524
 2195SOL    HW2 6405   0.091   4.461   0.478  0.3170 -3.3951  0.1390
 2196SOL     OW 6406   4.595   0.662   1.887 -0.2644 -0.2434  0.3010
 2196SOL    HW1 6407   4.625   0.650   1.792 -1.1554 -1.5534  0.1506
 2196SOL    HW2 6408   4.625   0.751   1.921  0.3095  0.1295 -1.1176
 2197SOL     OW 6409   4.183   2.366   0.964 -0.1399  0.8448 -0.6250
 2197SOL    HW1 6410   4.122   2.337   0.890 -1.8376 -0.9262  1.3542
 2197SOL    HW2 6411   4.267   2.311   0.960 -0.6795 -0.0117 -0.6285
 2198SOL     OW 6412   1.178   3.319   3.269 -0.1982 -0.0410 -0.0853
 2198SOL    HW1 6413   1.177   3.270   3.356 -1.0213  0.9099  0.4752
 2198SOL    HW2 6414   1.191   3.417   3.287  1.5118 -0.0347 -1.1755
 2199SOL     OW 6415   1.040   2.843   4.848 -0.5186 -0.2709  0.4169
 2199SOL    HW1 6416   1.064   2.880   4.758 -1.0665  0.9075  0.7346
 2199SOL    HW2 6417   1.035   2.744   4.842  1.3511 -0.3687 -0.3886
 2200SOL     OW 6418   1.180   1.391   0.648  0.5497 -0.4094 -0.4806
 2200SOL    HW1 6419   1.149   1.296   0.652  1.2786 -0.6222  0.3761
 2200SOL    HW2 6420   1.104   1.452   0.672 -0.1141 -0.7205 -1.7262
 2201SOL     OW 6421   0.279   1.065   1.698  0.2620  0.1819  0.0218
 2201SOL    HW1 6422   0.281   1.162   1.720 -0.9267  0.1340  0.4129
 2201SOL    HW2 6423   0.329   1.013   1.767  0.1334  0.4343  0.3031
 2202SOL     OW 6424   4.756   1.054   0.477  0.5861  0.0378  0.5030
 2202SOL    HW1 6425   4.806   1.125   0.526  3.2082 -1.4137  0.1579
 2202SOL    HW2 6426   4.783   1.054   0.381  2.4612 -2.7143  0.8891
 2203SOL     OW 6427   1.532   0.120   0.304 -0.4288 -0.0533 -0.0845
 2203SOL    HW1 6428   1.543   0.160   0.395  0.1910 -1.2516  0.3831
 2203SOL    HW2 6429   1.465   0.046   0.308 -0.0473 -0.4257 -0.4914
 2204SOL     OW 6430   1.462   0.285   4.909 -0.4588  0.3575  0.3072
 2204SOL    HW1 6431   1.380   0.340   4.888 -1.4046 -0.8703  0.6666
 2204SOL    HW2 6432   1.469   0.273   5.008  0.3393  0.7086  0.2954
 2205SOL     OW 6433   1.152   1.204   3.705 -0.6428  0.1761  0.2619
 2205SOL    HW1 6434   1.104   1.186   3.619  0.5742 -2.5352  0.0493
 2205SOL    HW2 6435   1.157   1.119   3.758  1.4490  1.0445  1.5440
 2206SOL     OW 6436   0.010   0.837   2.564 -0.1362 -0.0033 -0.1363
 2206SOL    HW1 6437   0.106   0.809   2.570 -0.3275 -0.6124  0.1722
 2206SOL    HW2 6438   0.001   0.911   2.497  0.6116  0.3598  0.1550
 2207SOL     OW 6439   1.265   5.004   1.875 -0.3689  0.0396 -0.1241
 2207SOL    HW1 6440   1.188   4.946   1.848 -0.7101  0.4262 -0.0020
 2207SOL    HW2 6441   1.340   4.947   1.908 -0.9464 -0.3163  0.6271
 2208SOL     OW 6442   4.881   1.770   4.175 -0.5942  0.3431  0.1526
 2208SOL    HW1 6443   4.932   1.711   4.238  3.6075  0.8277 -2.3929
 2208SOL    HW2 6444   4.889   1.865   4.204  1.3506  0.5672 -0.9265
 2209SOL     OW 6445   4.224   4.672   3.761  0.5629  0.6528 -0.0451
 2209SOL    HW1 6446   4.221   4.760   3.712  0.1595  1.5460  1.5346
 2209SOL    HW2 6447   4.315   4.660   3.801  0.1109  1.1655  1.1619
 2210SOL     OW 6448   1.216   1.411   2.648  0.3058  0.1588 -0.0287
 2210SOL    HW1 6449   1.176   1.327   2.612 -1.9646  1.5738 -1.0680
 2210SOL    HW2 6450   1.162   1.441   2.727 -0.3467  1.7534 -1.0279
 2211SOL     OW 6451   1.736   1.499   5.033  0.6951 -0.3069  0.3528
 2211SOL    HW1 6452   1.658   1.436   5.038  0.6556 -0.2220  0.8857
 2211SOL    HW2 6453   1.725   1.559   4.954  1.6271 -2.1131 -1.2238
 2212SOL     OW 6454   2.294   3.886   0.387 -0.8882  0.5340  0.5232
 2212SOL    HW1 6455   2.197   3.907   0.393 -1.0536 -0.3696  1.4311
 2212SOL    HW2 6456   2.307   3.787   0.398  0.1968  0.7519  1.3691
 2213SOL     OW 6457   1.540   3.434   2.381 -0.0887  0.2605  0.0854
 2213SOL    HW1 6458   1.503   3.439   2.288 -0.7399 -1.0078  0.2621
 2213SOL    HW2 6459   1.471   3.397   2.443 -0.0633  2.1652  1.3307
 2214SOL     OW 6460   4.073   0.619   3.190 -0.7014 -0.1685 -0.0724
 2214SOL    HW1 6461   4.016   0.541   3.214  1.3786 -1.4740  0.8732
 2214SOL    HW2 6462   4.110   0.661   3.272  1.7929 -1.0352 -0.6624
 2215SOL     OW 6463   1.674   3.498   2.070 -0.3973 -0.4003 -0.5135
 2215SOL    HW1 6464   1.702   3.442   2.147 -0.5774 -0.2169 -0.3135
 2215SOL    HW2 6465   1.585   3.539   2.089 -0.5237 -0.4993 -0.8941
 2216SOL     OW 6466   1.450   3.620   4.760  0.6119  0.2030 -0.0219
 2216SOL    HW1 6467   1.483   3.598   4.852 -1.5828 -1.3844  0.4735
 2216SOL    HW2 6468   1.352   3.635   4.763  0.4772  0.0403 -2.1234
 2217SOL     OW 6469   2.838   0.630   0.050 -0.2190  0.2016 -0.7253
 2217SOL    HW1 6470   2.826   0.560  -0.020  2.2824 -2.7610  1.5257
 2217SOL    HW2 6471   2.760   0.629   0.113 -1.5829  1.5973 -2.3026
 2218SOL     OW 6472   0.204   0.833   0.007  0.8562 -0.3047 -0.0082
 2218SOL    HW1 6473   0.109   0.804   0.019  1.1896 -0.6517  2.0780
 2218SOL    HW2 6474   0.264   0.754   0.012  1.3520  0.0579 -0.1939
 2219SOL     OW 6475   3.985   1.654   3.316 -0.3853 -0.0452  0.1298
 2219SOL    HW1 6476   3.901   1.688   3.272  0.1451 -0.9044 -1.6393
 2219SOL    HW2 6477   3.987   1.555   3.309  0.2069 -0.1208  1.2788
 2220SOL     OW 6478   1.707   2.899   0.554  0.2492  0.0675  0.2580
 2220SOL    HW1 6479   1.674   2.814   0.514  0.2685  0.0635  0.2501
 2220SOL    HW2 6480   1.769   2.877   0.630  3.2546 -0.0359 -2.0027
 2221SOL     OW 6481   3.010   2.237   4.454  0.4592 -0.4978  0.5750
 2221SOL    HW1 6482   3.100   2.280   4.439  0.0266  0.0677 -0.4879
 2221SOL    HW2 6483   2.977   2.261   4.546  0.4198  1.1351  0.1692
 2222SOL     OW 6484   1.779   4.597   2.067  0.2585  0.2042  0.4530
 2222SOL    HW1 6485   1.851   4.649   2.112 -1.3410  2.0061  1.0570
 2222SOL    HW2 6486   1.715   4.660   2.022 -0.0465 -1.3987 -1.5335
 2223SOL     OW 6487   3.655   2.670   4.538 -0.2817 -0.4448  0.3652
 2223SOL    HW1 6488   3.602   2.651   4.621 -2.6091 -3.3718 -1.5688
 2223SOL    HW2 6489   3.617   2.617   4.462  3.8377 -0.5909 -1.8592
 2224SOL     OW 6490   4.888   1.212   2.145 -0.1491  0.4766 -0.9198
 2224SOL    HW1 6491   4.808   1.153   2.152  0.2211  0.2106  2.0443
 2224SOL    HW2 6492   4.864   1.295   2.093 -1.9939 -0.0987 -1.0390
 2225SOL     OW 6493   3.502   2.952   4.201  0.4324 -0.0680  0.1557
 2225SOL    HW1 6494   3.418   2.984   4.244  0.2473 -0.0230 -0.2390
 2225SOL    HW2 6495   3.574   2.945   4.271 -0.0864 -0.8034  0.6370
 2226SOL     OW 6496   4.559   2.855   0.204  0.4404  0.1355 -0.2108
 2226SOL    HW1 6497   4.548   2.788   0.131  2.7449  1.0766 -1.5120
 2226SOL    HW2 6498   4.604   2.937   0.169  2.3153  0.3513  2.3575
 2227SOL     OW 6499   4.141   2.143   1.611  0.0866 -0.0641 -0.2471
 2227SOL    HW1 6500   4.197   2.149   1.528 -0.1796 -0.2573 -0.4449
 2227SOL    HW2 6501   4.160   2.056   1.657  1.1298  0.5634  0.5576
 2228SOL     OW 6502   4.302   3.341   0.674  0.7864 -0.2354 -0.2506
 2228SOL    HW1 6503   4.303   3.279   0.752  2.1180 -1.0875 -0.9143
 2228SOL    HW2 6504   4.272   3.431   0.704 -1.3173 -1.1683  0.7263
 2229SOL     OW 6505   4.239   0.355   1.601 -0.0787 -0.3607  0.0741
 2229SOL    HW1 6506   4.270   0.263   1.579  1.5319 -0.3185  1.9924
 2229SOL    HW2 6507   4.151   0.350   1.648 -0.7190 -0.7839 -1.1183
 2230SOL     OW 6508   1.138   0.480   4.645  0.4840 -0.1191 -0.3665
 2230SOL    HW1 6509   1.110   0.385   4.631  0.5597  0.0613 -1.9896
 2230SOL    HW2 6510   1.196   0.487   4.726  0.6477 -1.4918 -0.3495
 2231SOL     OW 6511   0.291   3.079   3.856 -0.2777 -0.5584  0.5801
 2231SOL    HW1 6512   0.382   3.054   3.821  0.3966  1.3489  0.8723
 2231SOL    HW2 6513   0.243   3.134   3.788  0.0694  1.0856  1.5936
 2232SOL     OW 6514   0.960   1.705   3.014  0.0844  0.3659  0.0457
 2232SOL    HW1 6515   0.936   1.781   2.954  0.8628  0.7917  0.2530
 2232SOL    HW2 6516   0.958   1.735   3.109 -0.2796 -0.0681  0.1820
 2233SOL     OW 6517   4.137   0.760   2.767  0.1284 -0.2051 -0.0749
 2233SOL    HW1 6518   4.151   0.690   2.837 -3.0221 -0.2003  0.6865
 2233SOL    HW2 6519   4.058   0.816   2.790  0.8761  1.8526 -2.0918
 2234SOL     OW 6520   1.381   1.076   0.711  0.5630 -0.3287 -0.6295
 2234SOL    HW1 6521   1.454   1.009   0.702  1.0156  0.1114 -0.2720
 2234SOL    HW2 6522   1.375   1.108   0.806 -0.1939 -0.4709 -0.6173
 2235SOL     OW 6523   2.297   0.428   4.674 -0.1727 -0.1974 -0.3930
 2235SOL    HW1 6524   2.266   0.522   4.666  0.8993  0.1269 -0.8257
 2235SOL    HW2 6525   2.239   0.379   4.740 -0.3915  0.9014  0.2469
 2236SOL     OW 6526   0.300   3.436   3.089  0.0085 -1.0426 -0.4419
 2236SOL    HW1 6527   0.245   3.379   3.029  0.2530  0.7421 -2.4889
 2236SOL    HW2 6528   0.316   3.525   3.045  0.5734  0.2105  2.1067
 2237SOL     OW 6529   4.472   4.524   1.916 -0.0877  0.2300 -0.8600
 2237SOL    HW1 6530   4.492   4.568   2.004 -0.7943  0.6210 -0.8814
 2237SOL    HW2 6531   4.554   4.480   1.881 -0.0810 -1.0040  0.6006
 2238SOL     OW 6532   1.397   4.841   2.057 -0.1941  0.0170 -0.2496
 2238SOL    HW1 6533   1.415   4.875   2.149 -1.1866  0.6485 -0.2793
 2238SOL    HW2 6534   1.316   4.783   2.058 -0.8608  0.9183 -0.9130
 2239SOL     OW 6535   1.280   3.910   1.011 -0.1308  0.1593 -0.0655
 2239SOL    HW1 6536   1.353   3.866   1.063 -0.1405  1.4979  1.1513
 2239SOL    HW2 6537   1.257   3.854   0.932  1.0740 -1.0980  0.4307
 2240SOL     OW 6538   2.465   1.254   3.946 -0.0172  0.0907  0.1032
 2240SOL    HW1 6539   2.407   1.216   4.018 -1.4348  0.2990 -0.8792
 2240SOL    HW2 6540   2.491   1.348   3.970 -0.0678 -0.0096  0.5567
 2241SOL     OW 6541   1.231   4.102   3.700  0.5747  0.1124  0.2688
 2241SOL    HW1 6542   1.149   4.047   3.718  0.3189  0.6275  0.7099
 2241SOL    HW2 6543   1.205   4.198   3.687  1.0572  0.1991 -0.0942
 2242SOL     OW 6544   3.475   3.687   0.985  0.1069  0.0825  0.5593
 2242SOL    HW1 6545   3.425   3.614   0.938 -0.0839 -0.1751  1.1588
 2242SOL    HW2 6546   3.486   3.664   1.082 -0.2809  1.0155  0.8403
 2243SOL     OW 6547   4.458   3.960   1.658  1.0390 -0.2839  0.2531
 2243SOL    HW1 6548   4.387   3.966   1.589  2.4588  0.3307 -1.2188
 2243SOL    HW2 6549   4.545   3.992   1.620  2.4969 -2.5248  1.4418
 2244SOL     OW 6550   4.758   0.641   1.618 -0.1825  0.3471  0.1017
 2244SOL    HW1 6551   4.837   0.649   1.679 -0.6966 -0.1127  0.8325
 2244SOL    HW2 6552   4.736   0.732   1.581 -0.4354  0.8017  1.3247
 2245SOL     OW 6553   1.837   0.190   4.904  0.3489 -0.1295 -0.7774
 2245SOL    HW1 6554   1.793   0.264   4.854  1.9827  1.9296  0.6307
 2245SOL    HW2 6555   1.867   0.119   4.840 -1.3978  0.3032 -2.1499
 2246SOL     OW 6556   2.721   3.204   1.453  0.3521 -1.0061 -0.3284
 2246SOL    HW1 6557   2.695   3.196   1.357  0.2198 -0.5142 -0.3325
 2246SOL    HW2 6558   2.717   3.113   1.496 -1.3724 -0.9578 -0.3159
 2247SOL     OW 6559   3.927   5.027   2.098  0.4000 -0.3373 -0.1337
 2247SOL    HW1 6560   3.934   4.982   2.187  0.4040 -0.4382 -0.1843
 2247SOL    HW2 6561   4.018   5.038   2.058  0.5807  1.3582  0.6790
 2248SOL     OW 6562   4.437   1.927   3.619 -0.0849  0.6712  0.3016
 2248SOL    HW1 6563   4.378   1.850   3.595  1.0521 -0.2645  0.4319
 2248SOL    HW2 6564   4.391   2.013   3.595 -1.7676  0.0130  1.0038
 2249SOL     OW 6565   4.892   0.394   3.905  0.2240  0.3708  0.3799
 2249SOL    HW1 6566   4.974   0.357   3.861 -1.4249 -2.9182 -0.2284
 2249SOL    HW2 6567   4.906   0.398   4.004  0.8551 -1.0045  0.3665
 2250SOL     OW 6568   1.714   0.478   4.298 -0.1791 -0.6758  0.1764
 2250SOL    HW1 6569   1.717   0.380   4.278  0.7588 -0.7556  0.6717
 2250SOL    HW2 6570   1.794   0.504   4.352 -0.0546  0.4984 -0.5287
 2251SOL     OW 6571   2.464   2.069   1.489 -0.2780 -0.4208  0.7169
 2251SOL    HW1 6572   2.535   2.097   1.554  2.4110 -0.9866 -1.7949
 2251SOL    HW2 6573   2.502   2.003   1.425 -2.4838  0.8070 -2.0569
 2252SOL     OW 6574   2.900   0.238   4.179  0.3382  0.1567  0.0347
 2252SOL    HW1 6575   2.805   0.228   4.209 -0.2723 -0.9137 -2.0210
 2252SOL    HW2 6576   2.953   0.158   4.207  0.2452  0.0395 -0.1235
 2253SOL     OW 6577   0.393   2.548   4.868 -0.4506 -0.2187  0.6041
 2253SOL    HW1 6578   0.303   2.552   4.912 -0.1965  0.1276  1.1095
 2253SOL    HW2 6579   0.408   2.632   4.815 -1.6378 -1.5124 -1.9737
 2254SOL     OW 6580   4.028   2.128   2.210  0.0465 -0.1549 -0.1707
 2254SOL    HW1 6581   4.018   2.108   2.112 -0.1792 -0.7692 -0.0275
 2254SOL    HW2 6582   3.948   2.094   2.259 -0.0144  0.4765  0.1880
 2255SOL     OW 6583   1.810   4.661   0.704 -0.1227  0.1362  0.0770
 2255SOL    HW1 6584   1.824   4.567   0.735  0.5730  0.0498 -0.4767
 2255SOL    HW2 6585   1.773   4.715   0.780  1.7006 -0.0223  1.1415
 2256SOL     OW 6586   1.941   4.605   0.459 -0.2351  0.8961 -0.1044
 2256SOL    HW1 6587   1.883   4.537   0.415 -0.1432  1.2085 -0.7058
 2256SOL    HW2 6588   1.901   4.631   0.547  0.2691 -0.7282  0.6526
 2257SOL     OW 6589   0.081   0.572   4.589 -0.1212  0.5260 -0.4765
 2257SOL    HW1 6590   0.095   0.526   4.501  1.1775  1.0356 -0.5511
 2257SOL    HW2 6591   0.050   0.666   4.572  0.3842  0.7077 -0.3993
 2258SOL     OW 6592   1.222   2.066   4.469 -0.0950 -0.2499  0.0530
 2258SOL    HW1 6593   1.307   2.072   4.522 -0.9721 -0.1467  1.4918
 2258SOL    HW2 6594   1.156   2.132   4.505 -0.3602  0.6101 -1.9016
 2259SOL     OW 6595   2.171   0.938   1.615  0.4373  0.4052 -0.0051
 2259SOL    HW1 6596   2.071   0.940   1.616  0.4328  1.1847  1.6601
 2259SOL    HW2 6597   2.203   0.850   1.651  0.3454  0.4190  0.1096
 2260SOL     OW 6598   1.914   1.509   0.499 -0.4705 -0.4629  0.1319
 2260SOL    HW1 6599   1.944   1.444   0.430 -0.5239  0.4029 -0.7355
 2260SOL    HW2 6600   1.916   1.466   0.589  0.7047 -1.2613 -0.2592
 2261SOL     OW 6601   4.140   1.102   0.158  0.4341 -0.2397  0.2524
 2261SOL    HW1 6602   4.198   1.175   0.193  0.1543 -0.3726  0.9978
 2261SOL    HW2 6603   4.186   1.058   0.081  0.7289  0.5296 -0.0204
 2262SOL     OW 6604   0.768   2.206   3.020 -0.0723  0.3641 -0.1714
 2262SOL    HW1 6605   0.691   2.172   2.966 -0.1248  1.8643 -1.1083
 2262SOL    HW2 6606   0.851   2.202   2.965  0.4560 -0.8384  0.6855
 2263SOL     OW 6607   2.363   1.999   4.520 -0.5015  0.2996  0.0772
 2263SOL    HW1 6608   2.344   1.902   4.503 -2.4653  0.6682 -0.1520
 2263SOL    HW2 6609   2.292   2.054   4.475  1.1188  1.9039 -0.5975
 2264SOL     OW 6610   1.866   4.392   1.018  0.0789 -0.4986  0.4034
 2264SOL    HW1 6611   1.875   4.380   0.919 -1.3200 -2.0329  0.4096
 2264SOL    HW2 6612   1.908   4.315   1.065 -0.4218 -0.4629  0.9289
 2265SOL     OW 6613   0.111   2.135   2.776 -0.6296  0.0493  0.0714
 2265SOL    HW1 6614   0.014   2.123   2.758 -0.1957 -1.8262 -1.3280
 2265SOL    HW2 6615   0.133   2.233   2.777 -2.5879  0.5234  0.9875
 2266SOL     OW 6616   4.074   4.181   1.442 -0.0444  0.0388  0.2699
 2266SOL    HW1 6617   4.031   4.271   1.443 -1.7182 -0.7091  0.7758
 2266SOL    HW2 6618   4.017   4.117   1.389  0.4834 -0.9863  0.8966
 2267SOL     OW 6619   3.102   3.763   1.138 -0.1759 -0.1922  0.5905
 2267SOL    HW1 6620   3.165   3.762   1.215 -2.0094  1.2328  2.2057
 2267SOL    HW2 6621   3.047   3.846   1.141  0.2856  0.3843 -2.8194
 2268SOL     OW 6622   3.943   1.931   1.261  0.1641 -0.4670  0.6700
 2268SOL    HW1 6623   3.913   1.971   1.347 -1.5469  2.5581 -1.1804
 2268SOL    HW2 6624   4.012   1.990   1.219  0.2166 -1.3584 -0.5448
 2269SOL     OW 6625   1.097   0.427   1.805  0.2720 -0.4822  0.1712
 2269SOL    HW1 6626   1.014   0.413   1.751  0.9164  0.2096 -1.0613
 2269SOL    HW2 6627   1.169   0.366   1.771  0.5068 -0.5010  0.6929
 2270SOL     OW 6628   4.238   3.910   0.903 -0.0628  0.2221  0.0776
 2270SOL    HW1 6629   4.196   3.823   0.930  1.6907 -0.7916 -0.3205
 2270SOL    HW2 6630   4.337   3.899   0.900  0.2482  2.4463  0.6801
 2271SOL     OW 6631   3.790   0.088   3.207 -0.2147 -0.1711  0.2371
 2271SOL    HW1 6632   3.848   0.163   3.240 -0.2606 -0.3267  0.6782
 2271SOL    HW2 6633   3.736   0.052   3.283  0.4362 -1.2315  0.2085
 2272SOL     OW 6634   2.533   3.331   2.423  0.6470 -0.2503  0.4369
 2272SOL    HW1 6635   2.459   3.387   2.460  1.2026 -0.2708  1.5968
 2272SOL    HW2 6636   2.621   3.367   2.452  1.0340 -1.3220  0.6397
 2273SOL     OW 6637   1.559   1.820   4.304  0.2489 -0.3103  0.3600
 2273SOL    HW1 6638   1.577   1.725   4.279 -0.1333 -0.0609 -0.9205
 2273SOL    HW2 6639   1.479   1.824   4.364 -0.5113 -0.6906 -0.6143
 2274SOL     OW 6640   2.060   1.811   4.536  0.1769  0.2498  0.2219
 2274SOL    HW1 6641   2.013   1.897   4.514 -1.8444 -1.5130 -3.2996
 2274SOL    HW2 6642   2.014   1.767   4.613 -0.1233  1.3438  0.6824
 2275SOL     OW 6643   2.738   4.322   1.628  0.2749  0.2692 -0.1217
 2275SOL    HW1 6644   2.757   4.420   1.632  0.8454  0.1117  1.4190
 2275SOL    HW2 6645   2.662   4.300   1.688 -0.7991 -0.0516 -1.5403
 2276SOL     OW 6646   2.682   2.941   1.509  0.4520  0.4190  0.1181
 2276SOL    HW1 6647   2.619   2.899   1.573 -1.2119  2.2250 -0.2364
 2276SOL    HW2 6648   2.706   2.876   1.437  1.7371 -1.3803  2.0560
 2277SOL     OW 6649   2.785   3.522   4.188 -0.4445  0.3408  0.3019
 2277SOL    HW1 6650   2.769   3.556   4.281  0.4966 -0.3361  0.7228
 2277SOL    HW2 6651   2.818   3.597   4.131 -0.8572  0.7197  0.5478
 2278SOL     OW 6652   1.519   2.969   1.766 -0.8732 -0.0145  0.8028
 2278SOL    HW1 6653   1.559   3.043   1.711 -0.4689 -0.0919  0.9952
 2278SOL    HW2 6654   1.498   3.003   1.857 -2.4797  0.3982  0.3144
 2279SOL     OW 6655   3.080   0.829   3.075 -0.1325 -0.3113 -0.0680
 2279SOL    HW1 6656   2.989   0.833   3.118 -0.4231  0.2993 -0.7210
 2279SOL    HW2 6657   3.150   0.842   3.145 -0.6425  3.9102 -0.0808
 2280SOL     OW 6658   4.135   0.774   4.889 -0.0084  0.0740  0.2137
 2280SOL    HW1 6659   4.087   0.714   4.953 -1.9549 -0.3030 -1.4792
 2280SOL    HW2 6660   4.071   0.803   4.818  1.9534  0.8319 -1.3116
 2281SOL     OW 6661   4.144   4.504   4.988  0.4380  0.5039  0.0335
 2281SOL    HW1 6662   4.061   4.487   4.934  1.9450 -1.3876 -1.8775
 2281SOL    HW2 6663   4.165   4.423   5.043  0.4557  1.3799  1.3500
 2282SOL     OW 6664   3.289   3.874   0.909  0.4458 -0.0611  0.0434
 2282SOL    HW1 6665   3.364   3.814   0.938  0.6518  1.2025  2.3400
 2282SOL    HW2 6666   3.210   3.860   0.969  0.1473  1.2171 -0.0286
 2283SOL     OW 6667   2.651   4.453   0.585  0.1509 -0.1349  0.3057
 2283SOL    HW1 6668   2.551   4.464   0.588  0.3448  1.7372  1.1841
 2283SOL    HW2 6669   2.673   4.358   0.562 -1.8202 -0.5273 -0.1961
 2284SOL     OW 6670   0.152   0.604   4.106 -0.1062 -0.2692 -0.3871
 2284SOL    HW1 6671   0.194   0.522   4.066 -2.0648 -1.0980 -0.8757
 2284SOL    HW2 6672   0.092   0.647   4.038  1.1526  1.8440 -0.2715
 2285SOL     OW 6673   1.895   3.151   4.895  0.1704  0.1272 -0.4665
 2285SOL    HW1 6674   1.934   3.133   4.805  0.0045 -2.7532 -0.0543
 2285SOL    HW2 6675   1.962   3.127   4.966  0.0134  1.6005  0.2122
 2286SOL     OW 6676   1.212   0.208   1.723  0.2283  0.6480 -0.4197
 2286SOL    HW1 6677   1.136   0.176   1.666  0.3045  1.1939 -0.8422
 2286SOL    HW2 6678   1.249   0.131   1.776 -1.5305  0.6545  0.8889
 2287SOL     OW 6679   4.712   3.042   2.415 -0.0424 -0.0481  0.6578
 2287SOL    HW1 6680   4.801   3.082   2.437 -0.4273  1.0839  0.2167
 2287SOL    HW2 6681   4.691   3.057   2.318  0.9584 -3.6410 -0.2904
 2288SOL     OW 6682   2.342   3.144   2.534 -0.5578 -0.5992  0.2485
 2288SOL    HW1 6683   2.399   3.093   2.599 -0.5553 -1.2107 -0.2157
 2288SOL    HW2 6684   2.398   3.171   2.455 -0.3468  0.9228  0.9012
 2289SOL     OW 6685   2.194   0.686   1.308 -0.5595 -0.4131 -0.1996
 2289SOL    HW1 6686   2.211   0.664   1.405 -0.9434 -1.5632 -0.3767
 2289SOL    HW2 6687   2.181   0.601   1.257  1.3244  0.0823 -1.6041
 2290SOL     OW 6688   0.965   4.399   1.707  0.5210  0.5768  0.0902
 2290SOL    HW1 6689   0.881   4.390   1.761 -0.1227 -0.2855 -1.0018
 2290SOL    HW2 6690   0.968   4.490   1.666  0.5023  0.8766  0.7397
 2291SOL     OW 6691   2.137   0.445   2.866 -0.1561  0.2600  0.0011
 2291SOL    HW1 6692   2.221   0.488   2.833 -0.4185  0.6136 -0.2178
 2291SOL    HW2 6693   2.093   0.397   2.790  0.1644 -0.4486  0.2584
 2292SOL     OW 6694   1.010   0.880   4.808 -0.4440  0.3880  0.3216
 2292SOL    HW1 6695   1.005   0.823   4.726  2.0447  0.6743 -0.0942
 2292SOL    HW2 6696   1.064   0.962   4.789 -1.6823  1.5915  1.6729
 2293SOL     OW 6697   0.187   3.844   1.197  0.8109  0.0407 -0.3640
 2293SOL    HW1 6698   0.271   3.890   1.168  0.6626  0.5963  0.0681
 2293SOL    HW2 6699   0.112   3.910   1.198  0.1220 -0.6812 -1.7706
 2294SOL     OW 6700   2.552   1.094   1.125  0.5238 -0.4386 -0.1597
 2294SOL    HW1 6701   2.503   1.161   1.070  0.0754  0.4490  1.2510
 2294SOL    HW2 6702   2.490   1.018   1.146 -0.7317  1.1495  2.4614
 2295SOL     OW 6703   1.078   0.673   0.624 -0.2042  0.0460  0.0198
 2295SOL    HW1 6704   1.171   0.688   0.658 -0.6839 -2.6169  2.9524
 2295SOL    HW2 6705   1.079   0.601   0.554  0.2042  2.3611 -2.5474
 2296SOL     OW 6706   4.159   2.856   3.727 -0.0729 -0.0588  0.2153
 2296SOL    HW1 6707   4.134   2.768   3.685 -1.1658 -0.0128  0.7141
 2296SOL    HW2 6708   4.166   2.926   3.655 -0.8574 -0.2085 -0.0247
 2297SOL     OW 6709   3.163   2.697   0.156  0.2530  0.0819 -0.1204
 2297SOL    HW1 6710   3.237   2.630   0.162 -0.8453 -1.2365 -0.6579
 2297SOL    HW2 6711   3.191   2.782   0.200  2.2580 -0.2047 -0.7560
 2298SOL     OW 6712   2.307   3.324   4.238 -0.4407 -1.1538 -0.1246
 2298SOL    HW1 6713   2.355   3.410   4.252 -1.9076 -0.1302 -1.1449
 2298SOL    HW2 6714   2.315   3.268   4.320  2.1800 -0.9120 -0.1343
 2299SOL     OW 6715   4.893   1.509   4.800 -0.0674  0.1798  0.4776
 2299SOL    HW1 6716   4.942   1.448   4.863  1.0648  0.6027  0.0341
 2299SOL    HW2 6717   4.959   1.566   4.750 -1.0078  0.6197 -0.3053
 2300SOL     OW 6718   5.042   1.879   3.706 -0.1886  0.4944  0.0791
 2300SOL    HW1 6719   5.047   1.926   3.794 -1.1041  0.6092  0.0859
 2300SOL    HW2 6720   5.042   1.947   3.632 -1.5631  0.5356  0.0906
 2301SOL     OW 6721   2.557   2.141   0.462 -0.1715  0.1098 -0.1921
 2301SOL    HW1 6722   2.610   2.188   0.392 -0.4958 -0.6791 -0.9919
 2301SOL    HW2 6723   2.565   2.042   0.449 -0.8200 -0.0344  0.4397
 2302SOL     OW 6724   2.858   3.573   3.683 -0.5346 -0.5045  0.1219
 2302SOL    HW1 6725   2.788   3.635   3.646 -2.9090 -1.4225  2.7465
 2302SOL    HW2 6726   2.931   3.627   3.726 -0.3456  0.4603 -1.3497
 2303SOL     OW 6727   4.639   1.446   0.119  0.7288  0.0935 -0.1286
 2303SOL    HW1 6728   4.587   1.482   0.196 -1.9446 -1.9502 -0.8342
 2303SOL    HW2 6729   4.671   1.521   0.062 -1.1079  1.4624  0.5769
 2304SOL     OW 6730   2.779   3.694   0.769 -0.2154  0.1840  0.4934
 2304SOL    HW1 6731   2.847   3.671   0.838 -0.2158 -0.5154  0.2691
 2304SOL    HW2 6732   2.697   3.638   0.782  0.5312 -1.4248 -1.2504
 2305SOL     OW 6733   2.566   1.561   1.367 -0.0408  0.1275 -0.1937
 2305SOL    HW1 6734   2.523   1.526   1.283 -0.6594 -0.1147  0.2089
 2305SOL    HW2 6735   2.580   1.485   1.431 -1.3049  0.5657  0.6565
 2306SOL     OW 6736   2.292   4.068   0.877  0.6273 -0.4530 -0.0859
 2306SOL    HW1 6737   2.318   4.017   0.960 -1.8696  0.1510  1.1709
 2306SOL    HW2 6738   2.307   4.166   0.893  0.5736 -0.3774 -0.5078
 2307SOL     OW 6739   4.718   1.694   3.747  0.4468 -0.5406 -0.0336
 2307SOL    HW1 6740   4.790   1.663   3.809 -0.1903  0.3781  1.1978
 2307SOL    HW2 6741   4.697   1.790   3.765 -0.7599 -0.6632 -0.6916
 2308SOL     OW 6742   2.492   1.097   4.486  0.2452  0.6032 -0.0839
 2308SOL    HW1 6743   2.466   1.092   4.583  1.0878  0.3202  0.1358
 2308SOL    HW2 6744   2.425   1.153   4.437 -0.5860  0.1738  0.5208
 2309SOL     OW 6745   4.772   4.470   2.447 -0.1449 -0.1640 -0.1266
 2309SOL    HW1 6746   4.757   4.381   2.491  2.2535  0.3717  2.0058
 2309SOL    HW2 6747   4.804   4.455   2.353  2.2742 -1.7153  0.8579
 2310SOL     OW 6748   0.387   1.630   4.174  0.0546  0.1093 -0.3540
 2310SOL    HW1 6749   0.353   1.536   4.178  0.2500  0.0132 -0.8231
 2310SOL    HW2 6750   0.411   1.661   4.265 -1.6694  0.3174  0.0662
 2311SOL     OW 6751   3.566   1.928   0.524 -0.7622  0.3110 -0.0952
 2311SOL    HW1 6752   3.467   1.942   0.515 -1.0508 -1.9713 -1.0723
 2311SOL    HW2 6753   3.598   1.869   0.450  1.0396 -0.4281  1.2131
 2312SOL     OW 6754   0.868   1.217   1.428 -0.2687 -0.0853  0.3033
 2312SOL    HW1 6755   0.937   1.244   1.496 -1.6092  1.5076  1.0960
 2312SOL    HW2 6756   0.847   1.296   1.370  0.3906 -1.2506 -1.6142
 2313SOL     OW 6757   2.263   3.574   0.734 -0.2749  0.4000 -0.5630
 2313SOL    HW1 6758   2.298   3.625   0.656 -0.4630  0.7367 -0.4274
 2313SOL    HW2 6759   2.192   3.627   0.780 -0.3934  0.0659 -0.3545
 2314SOL     OW 6760   3.368   0.309   3.768  0.0538  0.6723  0.2740
 2314SOL    HW1 6761   3.413   0.380   3.821 -0.2493  2.5404 -1.8340
 2314SOL    HW2 6762   3.277   0.340   3.740  0.6782  0.4012 -2.4002
 2315SOL     OW 6763   1.595   4.904   0.475  0.0954 -0.1821  0.5847
 2315SOL    HW1 6764   1.653   4.984   0.462 -0.7631  0.6036  1.3712
 2315SOL    HW2 6765   1.500   4.928   0.455 -0.3767 -0.5874  2.1684
 2316SOL     OW 6766   1.250   2.336   2.069 -0.2685  0.3277  0.4170
 2316SOL    HW1 6767   1.213   2.372   1.983 -0.4594 -1.6482 -0.3683
 2316SOL    HW2 6768   1.344   2.368   2.081 -0.3841  0.9623 -0.2966
 2317SOL     OW 6769   4.582   1.316   4.898 -0.2220  0.0719 -0.4149
 2317SOL    HW1 6770   4.589   1.387   4.829  0.5322  0.4496  0.0396
 2317SOL    HW2 6771   4.612   1.352   4.987  2.0057 -1.3139 -0.5270
 2318SOL     OW 6772   2.407   4.126   2.433 -0.9788 -0.1855 -0.1718
 2318SOL    HW1 6773   2.327   4.099   2.487 -0.6577  0.1225  0.4695
 2318SOL    HW2 6774   2.377   4.158   2.343 -1.5098 -0.8597 -0.2427
 2319SOL     OW 6775   2.179   2.170   3.458  0.4093  0.2029 -0.1684
 2319SOL    HW1 6776   2.080   2.175   3.451  0.2101  0.5826  2.2633
 2319SOL    HW2 6777   2.209   2.209   3.545  2.7444  0.5458 -1.0398
 2320SOL     OW 6778   3.205   3.225   3.507  0.3591 -0.0567  0.5166
 2320SOL    HW1 6779   3.135   3.294   3.524 -0.0851 -0.3002 -0.2949
 2320SOL    HW2 6780   3.273   3.260   3.443 -0.1628 -0.5498 -0.3225
 2321SOL     OW 6781   3.337   1.107   1.497 -0.1507  0.1000  0.4988
 2321SOL    HW1 6782   3.267   1.113   1.426 -0.9352 -1.3850  1.0859
 2321SOL    HW2 6783   3.296   1.125   1.587  0.8229  1.9459  0.6153
 2322SOL     OW 6784   2.251   3.949   3.693 -0.6247  0.3082 -0.3706
 2322SOL    HW1 6785   2.221   4.026   3.637 -0.4031  0.9293  0.3520
 2322SOL    HW2 6786   2.330   3.906   3.650 -0.9509  0.2659 -0.9479
 2323SOL     OW 6787   0.744   4.041   1.218 -0.2500 -0.2842  0.3460
 2323SOL    HW1 6788   0.836   4.066   1.251 -0.6895  0.3331  1.1517
 2323SOL    HW2 6789   0.736   3.941   1.216  0.6357 -0.3529 -0.3130
 2324SOL     OW 6790   3.461   0.442   1.461  0.3709 -0.4966 -0.3760
 2324SOL    HW1 6791   3.405   0.525   1.462  0.2357 -0.5869 -0.3395
 2324SOL    HW2 6792   3.483   0.415   1.555 -1.2502 -1.6083 -0.2693
 2325SOL     OW 6793   2.485   0.713   3.602  0.5911  0.3290 -0.2052
 2325SOL    HW1 6794   2.496   0.691   3.699  0.8402  0.1861 -0.2621
 2325SOL    HW2 6795   2.554   0.663   3.549  0.9581  0.9988 -0.3748
 2326SOL     OW 6796   2.487   4.048   0.326 -0.3448 -0.4977 -0.2139
 2326SOL    HW1 6797   2.404   3.996   0.344  0.2204 -0.9738  1.1329
 2326SOL    HW2 6798   2.566   3.987   0.328  0.3481  0.4029  1.5430
 2327SOL     OW 6799   4.994   0.733   1.766 -0.3982  0.1901 -0.1604
 2327SOL    HW1 6800   5.040   0.796   1.704 -0.4679  0.8462  0.4484
 2327SOL    HW2 6801   4.969   0.781   1.850 -1.2764 -0.4125 -0.0651
 2328SOL     OW 6802   4.779   1.580   0.603 -0.2439 -0.0711  0.1333
 2328SOL    HW1 6803   4.711   1.598   0.532  0.0499  0.1476 -0.0952
 2328SOL    HW2 6804   4.735   1.588   0.693 -0.9164 -1.6015 -0.0326
 2329SOL     OW 6805   4.357   3.241   1.242 -0.5062  0.0272  0.2988
 2329SOL    HW1 6806   4.320   3.255   1.334  1.4457  0.5061  1.0630
 2329SOL    HW2 6807   4.455   3.261   1.243 -0.1580 -1.4104 -1.5615
 2330SOL     OW 6808   2.412   3.927   1.099  0.1082  0.2398 -0.1155
 2330SOL    HW1 6809   2.363   3.844   1.127  0.9439 -0.3864 -0.4510
 2330SOL    HW2 6810   2.493   3.901   1.046  0.7948  1.2490  0.4161
 2331SOL     OW 6811   2.142   0.241   0.946 -0.0907 -0.7549  0.2920
 2331SOL    HW1 6812   2.065   0.186   0.915 -0.0345 -0.9242  0.4509
 2331SOL    HW2 6813   2.228   0.193   0.928 -0.1060 -1.3792  1.7433
 2332SOL     OW 6814   0.002   0.384   0.514 -0.5367  0.2867  0.0975
 2332SOL    HW1 6815   0.012   0.424   0.605 -0.2673  0.5983 -0.0626
 2332SOL    HW2 6816  -0.084   0.414   0.473 -2.0079 -2.0261  1.3010
 2333SOL     OW 6817   4.147   4.614   4.178 -0.0638 -0.7715  0.1035
 2333SOL    HW1 6818   4.157   4.520   4.209  0.1572 -0.6023  0.5611
 2333SOL    HW2 6819   4.235   4.648   4.146  0.2500 -0.1880  1.5070
 2334SOL     OW 6820   0.960   2.515   3.538 -0.5738 -0.3424  0.5290
 2334SOL    HW1 6821   0.969   2.569   3.454 -2.9135  0.2119  0.5709
 2334SOL    HW2 6822   0.954   2.418   3.514 -3.3368 -0.0689 -0.2291
 2335SOL     OW 6823   4.600   5.025   1.672 -0.7658 -0.0936 -0.0778
 2335SOL    HW1 6824   4.631   5.001   1.764 -1.2689  1.3327  0.4825
 2335SOL    HW2 6825   4.624   4.951   1.609  0.6236 -0.5857  0.9751
 2336SOL     OW 6826   1.505   0.341   4.000 -0.1415  0.1048 -0.1387
 2336SOL    HW1 6827   1.417   0.383   3.978  0.3064  1.4497  0.4996
 2336SOL    HW2 6828   1.501   0.300   4.091 -0.2613 -0.3070 -0.3275
 2337SOL     OW 6829   4.859   0.251   1.994  0.0578  0.3141 -0.1320
 2337SOL    HW1 6830   4.784   0.307   2.030  0.6768  1.7026 -0.9169
 2337SOL    HW2 6831   4.829   0.207   1.909 -0.3594 -0.3850  0.3697
 2338SOL     OW 6832   4.573   4.950   4.493  0.3114 -0.3609  0.0959
 2338SOL    HW1 6833   4.623   5.000   4.564 -1.2646  0.0744  0.9560
 2338SOL    HW2 6834   4.637   4.899   4.436  1.6564 -0.3755  1.5604
 2339SOL     OW 6835   3.198   3.968   4.467  0.1101 -0.2931  0.1561
 2339SOL    HW1 6836   3.225   3.949   4.562 -0.9422 -2.0329  0.1569
 2339SOL    HW2 6837   3.110   4.016   4.466 -0.1064 -0.6891  0.0585
 2340SOL     OW 6838   1.783   4.901   3.221  0.2582 -0.3700 -0.1524
 2340SOL    HW1 6839   1.852   4.832   3.244 -0.1027 -0.4666  0.7072
 2340SOL    HW2 6840   1.706   4.892   3.284  0.4084  1.1304  0.2868
 2341SOL     OW 6841   4.264   4.527   1.481  0.7358 -0.2045  0.2708
 2341SOL    HW1 6842   4.266   4.479   1.569  2.3494 -2.0191 -0.6837
 2341SOL    HW2 6843   4.246   4.624   1.497  0.9432 -0.4832  2.6000
 2342SOL     OW 6844   1.127   3.212   2.826  0.4801 -0.0307  0.2456
 2342SOL    HW1 6845   1.064   3.139   2.799 -0.4959  0.5941  0.7835
 2342SOL    HW2 6846   1.217   3.173   2.844 -0.5398 -1.5014  2.6673
 2343SOL     OW 6847   2.663   4.676   2.516  0.4419 -0.2457 -0.5324
 2343SOL    HW1 6848   2.600   4.656   2.442 -0.8283  1.2084  0.1146
 2343SOL    HW2 6849   2.652   4.771   2.546 -0.4277 -1.2336  2.7134
 2344SOL     OW 6850   3.608   0.485   1.226  0.2234 -0.2399 -0.1067
 2344SOL    HW1 6851   3.654   0.567   1.193 -0.8059  0.0299 -0.9315
 2344SOL    HW2 6852   3.560   0.505   1.311  1.1313 -0.3717  0.4463
 2345SOL     OW 6853   3.777   4.491   0.880  0.3502  0.5288 -0.0329
 2345SOL    HW1 6854   3.730   4.461   0.964 -0.3722  1.1665 -0.1958
 2345SOL    HW2 6855   3.775   4.418   0.813  0.7592  0.0813  0.4360
 2346SOL     OW 6856   2.143   4.927   4.579 -0.2884 -0.0830  0.6380
 2346SOL    HW1 6857   2.155   4.853   4.513 -0.5922 -0.3656  0.8976
 2346SOL    HW2 6858   2.188   4.903   4.665 -0.1812  0.1396  0.6455
 2347SOL     OW 6859   0.415   1.887   2.670  0.1043  0.4661 -0.3486
 2347SOL    HW1 6860   0.391   1.790   2.672 -0.0437  0.5071  0.2082
 2347SOL    HW2 6861   0.337   1.941   2.638 -0.2468  0.5077  0.5264
 2348SOL     OW 6862   4.784   1.285   1.892  0.4056  1.0538  0.1944
 2348SOL    HW1 6863   4.791   1.349   1.815  1.8436  0.8456  0.1211
 2348SOL    HW2 6864   4.690   1.285   1.927 -0.3086  1.1109 -1.5928
 2349SOL     OW 6865   2.452   0.225   0.465 -0.1498 -0.0998  0.3286
 2349SOL    HW1 6866   2.552   0.225   0.476 -0.1613 -2.9759  1.1079
 2349SOL    HW2 6867   2.418   0.319   0.476  2.1321  0.5334  3.5965
 2350SOL     OW 6868   1.790   3.902   1.242  0.0696  0.1584  0.5108
 2350SOL    HW1 6869   1.862   3.878   1.176 -1.8701 -1.0245 -1.3351
 2350SOL    HW2 6870   1.738   3.819   1.265 -0.4632  0.9020  2.1120
 2351SOL     OW 6871   4.234   4.630   1.821  0.0882  0.5758 -0.1736
 2351SOL    HW1 6872   4.167   4.562   1.791 -0.8043  1.1018  0.5748
 2351SOL    HW2 6873   4.326   4.590   1.821 -0.4082 -0.5776  0.1028
 2352SOL     OW 6874   2.521   2.062   1.057  0.5503  0.0731  0.2379
 2352SOL    HW1 6875   2.513   2.015   0.969 -0.3355  1.5444 -0.5112
 2352SOL    HW2 6876   2.617   2.071   1.082  0.7923 -0.7141 -0.3806
 2353SOL     OW 6877   1.387   4.071   0.249  0.2984  0.2116  0.6308
 2353SOL    HW1 6878   1.421   4.065   0.343  4.9732  0.7355 -0.7688
 2353SOL    HW2 6879   1.422   3.994   0.196 -0.9328  0.7774 -1.0945
 2354SOL     OW 6880   0.106   3.284   2.960 -0.4615  0.0978 -0.7623
 2354SOL    HW1 6881   0.107   3.368   2.905  0.0861 -0.4125 -1.5644
 2354SOL    HW2 6882   0.014   3.266   2.992 -0.6387  0.8552 -0.8256
 2355SOL     OW 6883   1.831   4.595   2.475  0.1344  0.1731 -0.0073
 2355SOL    HW1 6884   1.874   4.612   2.386  0.5473 -1.7709 -0.2218
 2355SOL    HW2 6885   1.802   4.500   2.480  0.4359  0.1515  2.0735
 2356SOL     OW 6886   1.204   1.719   0.751  0.3824  0.3733  0.1593
 2356SOL    HW1 6887   1.271   1.673   0.693  0.8177  0.5668  0.4961
 2356SOL    HW2 6888   1.112   1.707   0.713  0.3490 -1.6241  0.7504
 2357SOL     OW 6889   2.691   1.241   3.758 -0.2271  0.2266  0.7280
 2357SOL    HW1 6890   2.635   1.250   3.841  0.1504 -0.3337  1.0501
 2357SOL    HW2 6891   2.758   1.168   3.771  0.7214  1.0196  0.4276
 2358SOL     OW 6892   4.115   0.743   0.897 -0.1696 -0.7222  0.3678
 2358SOL    HW1 6893   4.204   0.787   0.892 -1.3569  1.8199 -0.7783
 2358SOL    HW2 6894   4.100   0.707   0.989  1.3884  0.2468  1.0382
 2359SOL     OW 6895   2.182   2.342   4.813 -0.1298 -0.6687  0.5617
 2359SOL    HW1 6896   2.127   2.261   4.831 -0.1892 -0.5151  1.0829
 2359SOL    HW2 6897   2.194   2.353   4.714  1.6827 -2.5090  0.5203
 2360SOL     OW 6898   0.661   2.577   1.532  0.6728 -0.0757  0.3549
 2360SOL    HW1 6899   0.678   2.495   1.586 -0.3394  0.2722  1.2486
 2360SOL    HW2 6900   0.720   2.651   1.565  0.8459 -0.1698  0.2513
 2361SOL     OW 6901   1.634   2.144   2.361  0.0475  0.3212  0.0205
 2361SOL    HW1 6902   1.651   2.242   2.363 -0.9705  0.4934  0.4044
 2361SOL    HW2 6903   1.562   2.123   2.295  0.9941 -0.2996 -0.8584
 2362SOL     OW 6904   4.918   3.209   1.272 -0.3574  0.0691  0.3231
 2362SOL    HW1 6905   4.966   3.139   1.221  1.4652  2.0911 -0.8951
 2362SOL    HW2 6906   4.906   3.179   1.367  1.0373 -1.5470  0.0375
 2363SOL     OW 6907   1.582   2.259   3.569 -0.3120 -0.4466 -0.5215
 2363SOL    HW1 6908   1.545   2.253   3.662 -0.3843 -1.5899 -0.5992
 2363SOL    HW2 6909   1.681   2.268   3.573 -0.3423 -0.1902 -0.3305
 2364SOL     OW 6910   2.800   2.396   1.676 -0.0643 -0.1194 -0.5194
 2364SOL    HW1 6911   2.787   2.414   1.774 -1.4909  1.4023 -0.9344
 2364SOL    HW2 6912   2.869   2.324   1.664 -0.2060 -0.6818  1.6013
 2365SOL     OW 6913   3.390   3.560   4.358  0.1027  0.7577  0.1670
 2365SOL    HW1 6914   3.440   3.588   4.439  1.8927 -2.4414  0.3389
 2365SOL    HW2 6915   3.454   3.548   4.282 -1.1716  1.1876 -1.0227
 2366SOL     OW 6916   0.957   4.910   0.255 -0.2038  0.2924  0.0112
 2366SOL    HW1 6917   0.863   4.897   0.223 -1.0533 -0.5753  2.6360
 2366SOL    HW2 6918   0.971   5.006   0.280 -0.8716  0.1737  0.9026
 2367SOL     OW 6919   0.237   4.243   0.385  0.0881 -0.0965  0.1785
 2367SOL    HW1 6920   0.289   4.179   0.330  0.7472 -0.6550  1.4138
 2367SOL    HW2 6921   0.200   4.315   0.326  1.8347  0.0557 -0.8004
 2368SOL     OW 6922   3.916   2.339   4.415  0.4840 -0.1993 -0.1395
 2368SOL    HW1 6923   3.962   2.365   4.330  1.0062 -2.3472 -0.5758
 2368SOL    HW2 6924   3.948   2.398   4.489  0.4988  1.2943 -1.2855
 2369SOL     OW 6925   0.078   0.325   3.782  0.0726 -0.7830 -0.6525
 2369SOL    HW1 6926   0.127   0.377   3.712 -1.6496 -0.8629 -1.9905
 2369SOL    HW2 6927   0.077   0.228   3.757 -0.7774 -0.7782 -0.6515
 2370SOL     OW 6928   1.477   4.544   2.689 -0.0414  0.7048 -0.4636
 2370SOL    HW1 6929   1.442   4.563   2.597 -0.9166  0.3240 -0.2186
 2370SOL    HW2 6930   1.557   4.601   2.706  0.5550  0.2835 -1.7176
 2371SOL     OW 6931   3.302   4.800   4.279 -0.0418 -0.5745  0.1273
 2371SOL    HW1 6932   3.213   4.774   4.317 -0.0435 -0.2094  0.3770
 2371SOL    HW2 6933   3.371   4.732   4.305  0.1959  0.2287  1.7484
 2372SOL     OW 6934   4.591   3.424   0.677  0.6430  0.1347 -0.2329
 2372SOL    HW1 6935   4.643   3.438   0.761  0.2094 -0.0674  0.0683
 2372SOL    HW2 6936   4.497   3.399   0.699  0.7224 -0.6790 -0.7739
 2373SOL     OW 6937   1.779   2.472   1.658 -0.0514 -0.0016 -0.2125
 2373SOL    HW1 6938   1.771   2.533   1.737 -2.6345 -1.5973  0.8888
 2373SOL    HW2 6939   1.842   2.511   1.591 -0.3360  3.0212  1.1545
 2374SOL     OW 6940   2.948   3.053   2.382  0.4502  0.4191  0.0584
 2374SOL    HW1 6941   2.866   3.082   2.431 -0.1292  0.4695 -0.9272
 2374SOL    HW2 6942   2.929   2.970   2.330  1.6250 -0.8211  1.4972
 2375SOL     OW 6943   2.429   2.049   4.993 -0.0861  0.4760  0.2644
 2375SOL    HW1 6944   2.420   2.025   4.897 -1.5772  0.1749  0.4446
 2375SOL    HW2 6945   2.406   1.969   5.050 -0.6062  1.0318  0.8578
 2376SOL     OW 6946   3.428   2.956   0.463 -0.2083 -0.0180  0.2648
 2376SOL    HW1 6947   3.471   2.877   0.506  0.0252 -0.2405 -0.3658
 2376SOL    HW2 6948   3.390   3.016   0.533 -1.0030 -1.0330  0.7172
 2377SOL     OW 6949   0.644   1.967   0.089 -0.4832  0.7098 -0.3451
 2377SOL    HW1 6950   0.651   1.940  -0.007  1.1138  0.6019 -0.2284
 2377SOL    HW2 6951   0.709   1.913   0.143 -0.8340  1.2897  0.6835
 2378SOL     OW 6952   4.556   4.847   0.282 -0.0333 -0.0638  0.2355
 2378SOL    HW1 6953   4.622   4.819   0.212 -1.2793  0.4494 -1.2068
 2378SOL    HW2 6954   4.546   4.946   0.282  0.8004  0.0571  1.9926
 2379SOL     OW 6955   2.984   0.584   1.907 -0.1981 -0.2634  0.2740
 2379SOL    HW1 6956   2.948   0.677   1.899  1.3674  0.3615  0.0564
 2379SOL    HW2 6957   3.081   0.584   1.884 -0.3360 -2.1042 -0.5095
 2380SOL     OW 6958   3.948   2.366   4.911  0.0976  1.1372  0.2643
 2380SOL    HW1 6959   3.905   2.455   4.922  0.1688  1.0494  1.3500
 2380SOL    HW2 6960   3.884   2.294   4.940  0.4490  0.9084  0.4803
 2381SOL     OW 6961   1.594   3.937   0.914  0.5651  0.3114  0.5038
 2381SOL    HW1 6962   1.612   3.842   0.940 -1.3269  0.1266  1.2339
 2381SOL    HW2 6963   1.673   3.973   0.864  1.6681 -1.3548  0.9768
 2382SOL     OW 6964   1.774   2.797   1.731  0.1644  0.0071  0.4607
 2382SOL    HW1 6965   1.773   2.750   1.819 -1.4570 -0.3999  0.2535
 2382SOL    HW2 6966   1.685   2.840   1.715  1.4076  2.7674  0.4127
 2383SOL     OW 6967   2.744   2.234   0.271  0.1348 -0.1180  0.3056
 2383SOL    HW1 6968   2.753   2.333   0.261  3.3404 -0.3623 -0.3081
 2383SOL    HW2 6969   2.736   2.191   0.181  1.7515 -0.5820  0.3637
 2384SOL     OW 6970   4.274   2.658   4.004  0.2679 -0.3505  0.3314
 2384SOL    HW1 6971   4.318   2.676   3.916 -0.5294 -1.1602 -0.2482
 2384SOL    HW2 6972   4.176   2.645   3.990  0.4419 -2.8908  0.9723
 2385SOL     OW 6973   2.206   2.716   2.892 -0.2211  0.1710 -0.1776
 2385SOL    HW1 6974   2.302   2.744   2.900 -0.2318  0.1747 -0.0429
 2385SOL    HW2 6975   2.153   2.762   2.964 -0.0607 -0.9741  0.6979
 2386SOL     OW 6976   1.475   4.730   1.649  0.0761  0.1918 -0.3152
 2386SOL    HW1 6977   1.382   4.718   1.685  0.8021 -1.8711  1.0079
 2386SOL    HW2 6978   1.475   4.805   1.582 -2.8528 -0.7371 -1.5087
 2387SOL     OW 6979   0.509   3.474   0.590  0.1373 -0.3727 -0.3985
 2387SOL    HW1 6980   0.443   3.399   0.581 -1.5003  1.0982 -1.2471
 2387SOL    HW2 6981   0.466   3.549   0.640  0.7862  1.0527 -1.9354
 2388SOL     OW 6982   4.893   2.110   2.712  0.7592 -0.1103 -0.6620
 2388SOL    HW1 6983   4.805   2.113   2.760  1.0964 -1.9416  0.1480
 2388SOL    HW2 6984   4.891   2.037   2.644  2.0385 -0.9296  0.1584
 2389SOL     OW 6985   4.346   0.855   1.455  0.3773  0.3135  0.4577
 2389SOL    HW1 6986   4.386   0.908   1.530  1.7092 -0.9624  0.6938
 2389SOL    HW2 6987   4.370   0.758   1.466  1.2977  0.1756 -2.0074
 2390SOL     OW 6988   1.608   3.390   1.467 -0.5351 -0.2713 -0.6169
 2390SOL    HW1 6989   1.700   3.377   1.431 -0.8612  0.5939 -1.8841
 2390SOL    HW2 6990   1.612   3.423   1.561  0.4713  0.1154 -0.7868
 2391SOL     OW 6991   4.467   1.012   0.357 -0.8819 -0.8351 -0.0218
 2391SOL    HW1 6992   4.401   1.085   0.341 -1.2426 -0.6464  2.0503
 2391SOL    HW2 6993   4.559   1.044   0.334 -1.2949 -0.5461 -1.3461
 2392SOL     OW 6994   4.199   2.692   2.745 -0.2800 -0.4741  0.7402
 2392SOL    HW1 6995   4.124   2.632   2.718  0.7771 -0.5654 -2.4688
 2392SOL    HW2 6996   4.208   2.692   2.845 -1.9641 -3.5528  1.0140
 2393SOL     OW 6997   1.427   1.777   3.528 -0.0108  0.0726  0.1605
 2393SOL    HW1 6998   1.357   1.731   3.583  0.2962 -2.5504 -1.4555
 2393SOL    HW2 6999   1.383   1.845   3.470 -1.2447 -1.2781 -0.5759
 2394SOL     OW 7000   4.133   4.795   4.376 -0.0335  0.0918  0.7684
 2394SOL    HW1 7001   4.224   4.809   4.416 -0.2724  1.2423  0.9328
 2394SOL    HW2 7002   4.139   4.725   4.305  1.2687  1.0538 -0.1278
 2395SOL     OW 7003   4.358   3.814   1.293 -0.3301  0.3223  0.2565
 2395SOL    HW1 7004   4.422   3.887   1.269  0.3883  0.3989  2.2069
 2395SOL    HW2 7005   4.297   3.847   1.365  0.0652 -1.0087  1.2346
 2396SOL     OW 7006   1.629   3.120   1.560 -0.0089  0.2958 -0.4625
 2396SOL    HW1 7007   1.699   3.191   1.564  1.1524 -0.8514  0.7796
 2396SOL    HW2 7008   1.648   3.058   1.484  0.5272 -0.1818  0.0480
 2397SOL     OW 7009   2.227   1.070   0.243  0.0678  0.2126 -0.0075
 2397SOL    HW1 7010   2.264   1.072   0.336 -1.5526 -0.1521  0.6813
 2397SOL    HW2 7011   2.180   0.983   0.228 -1.6206  1.1557 -0.3595
 2398SOL     OW 7012   1.461   1.022   4.135  0.0521  0.0451 -0.2314
 2398SOL    HW1 7013   1.439   0.925   4.141  1.0532 -0.1710  0.1245
 2398SOL    HW2 7014   1.425   1.070   4.215 -1.0021  0.0868 -0.7228
 2399SOL     OW 7015   0.900   4.747   4.936 -1.0778 -0.4007  0.0283
 2399SOL    HW1 7016   0.809   4.716   4.963 -1.5244  1.1955  0.4481
 2399SOL    HW2 7017   0.966   4.674   4.952 -1.8321 -0.6308  2.4327
 2400SOL     OW 7018   2.932   2.239   2.379 -0.2461 -0.2342  0.2451
 2400SOL    HW1 7019   2.929   2.144   2.349 -1.4668 -0.2422  0.3518
 2400SOL    HW2 7020   2.917   2.244   2.477 -4.0944  0.2581 -0.2434
 2401SOL     OW 7021   0.551   3.524   1.493  0.3124  0.2674 -0.2244
 2401SOL    HW1 7022   0.521   3.429   1.485  0.6412 -0.2003  2.9108
 2401SOL    HW2 7023   0.472   3.585   1.495  0.0802  0.0456 -1.6681
 2402SOL     OW 7024   3.586   4.777   1.852 -0.4515 -0.1196  0.5972
 2402SOL    HW1 7025   3.548   4.709   1.915 -3.8900 -0.4686 -1.6204
 2402SOL    HW2 7026   3.581   4.743   1.758  1.4721  1.6924 -0.2448
 2403SOL     OW 7027   2.310   1.296   4.898 -0.1163 -0.7347 -0.5890
 2403SOL    HW1 7028   2.336   1.232   4.825 -1.1127 -0.6274 -1.0584
 2403SOL    HW2 7029   2.344   1.387   4.875 -0.1535 -0.7644 -0.7696
 2404SOL     OW 7030   4.117   0.395   4.545 -0.2002 -0.1867 -0.0957
 2404SOL    HW1 7031   4.141   0.414   4.640  2.1376  0.7131 -0.7965
 2404SOL    HW2 7032   4.167   0.315   4.513 -1.4982 -0.9033 -0.3999
 2405SOL     OW 7033   5.003   1.512   2.924  0.4286 -0.5258 -0.0555
 2405SOL    HW1 7034   4.913   1.487   2.888  0.9104 -1.8131 -0.4219
 2405SOL    HW2 7035   5.006   1.610   2.940 -1.5499 -0.6403  1.3770
 2406SOL     OW 7036   3.229   2.649   3.240 -0.2051  0.0270  0.3789
 2406SOL    HW1 7037   3.208   2.731   3.295  1.1364  0.9915 -0.4912
 2406SOL    HW2 7038   3.215   2.670   3.143 -2.4384 -1.6214  0.2494
 2407SOL     OW 7039   2.419   1.491   1.151 -0.5078  0.2115  0.4733
 2407SOL    HW1 7040   2.351   1.430   1.111 -0.1374 -1.0173  1.6519
 2407SOL    HW2 7041   2.438   1.566   1.088 -0.9616 -0.9022 -1.0377
 2408SOL     OW 7042   5.002   3.486   4.591  0.3102 -0.6914  0.3637
 2408SOL    HW1 7043   4.947   3.430   4.654  0.1726 -0.8645  0.0889
 2408SOL    HW2 7044   5.010   3.579   4.628  0.2242 -0.7919  0.6362
 2409SOL     OW 7045   3.611   2.949   1.734 -0.2708  0.1993  0.2125
 2409SOL    HW1 7046   3.675   3.019   1.766  1.4466 -0.5176 -1.4590
 2409SOL    HW2 7047   3.537   2.939   1.800 -0.1678  3.0216  0.8977
 2410SOL     OW 7048   2.062   3.628   3.131 -0.8520  0.1313  0.3169
 2410SOL    HW1 7049   2.099   3.608   3.040 -0.9123 -0.3155  0.3882
 2410SOL    HW2 7050   1.973   3.673   3.122 -1.8592 -1.7907  0.1383
 2411SOL     OW 7051   4.174   3.109   1.089 -0.1074  0.3032 -0.7668
 2411SOL    HW1 7052   4.089   3.148   1.125 -1.3550 -0.0812 -3.1059
 2411SOL    HW2 7053   4.252   3.147   1.139 -1.6162  0.8400  1.2976
 2412SOL     OW 7054   0.381   3.277   2.568 -0.0033  0.2041 -0.5424
 2412SOL    HW1 7055   0.422   3.240   2.485  0.9041  0.3363 -0.1728
 2412SOL    HW2 7056   0.426   3.363   2.592 -1.4374  1.0736 -0.8628
 2413SOL     OW 7057   0.581   0.830   0.614  0.5062  0.0499 -0.1807
 2413SOL    HW1 7058   0.637   0.890   0.671  0.1374 -0.2069  0.4653
 2413SOL    HW2 7059   0.503   0.798   0.668  1.0317 -1.5153 -0.3107
 2414SOL     OW 7060   2.183   4.897   3.118 -0.3109  0.1726  0.4289
 2414SOL    HW1 7061   2.103   4.929   3.067  1.0752  1.0002 -1.3591
 2414SOL    HW2 7062   2.218   4.813   3.076  0.4434  0.4699  0.4425
 2415SOL     OW 7063   4.804   0.560   0.522 -0.3580  0.3192  0.0954
 2415SOL    HW1 7064   4.759   0.632   0.469 -0.1931  0.8809  0.7148
 2415SOL    HW2 7065   4.788   0.574   0.619  2.7776  1.7163  0.5314
 2416SOL     OW 7066   0.900   4.468   3.778  0.0501 -0.3741 -0.2745
 2416SOL    HW1 7067   0.839   4.395   3.807 -0.5502 -0.1967 -1.0814
 2416SOL    HW2 7068   0.847   4.547   3.749  0.6696  1.0635  2.1735
 2417SOL     OW 7069   3.942   4.929   2.335  0.6380 -0.0327 -1.0580
 2417SOL    HW1 7070   3.945   4.861   2.408  0.2703 -0.1711 -1.1681
 2417SOL    HW2 7071   4.021   4.990   2.342  0.7113 -0.1719 -0.6702
 2418SOL     OW 7072   0.964   2.483   1.122  0.4673 -0.4598 -0.6552
 2418SOL    HW1 7073   0.896   2.482   1.195 -0.0113  1.3782 -1.0165
 2418SOL    HW2 7074   1.004   2.392   1.111 -2.0276 -1.6257 -0.5346
 2419SOL     OW 7075   1.263   3.571   3.256 -0.2172 -0.1356  0.0132
 2419SOL    HW1 7076   1.335   3.613   3.201 -1.2842  1.7216 -0.0429
 2419SOL    HW2 7077   1.280   3.588   3.353 -0.8654  0.8644 -0.0293
 2420SOL     OW 7078   3.700   2.767   0.030 -0.2789 -0.4716  0.0729
 2420SOL    HW1 7079   3.626   2.825  -0.005 -1.5679 -0.9125  1.9274
 2420SOL    HW2 7080   3.667   2.713   0.107  2.0487 -0.5029  1.1513
 2421SOL     OW 7081   4.789   4.505   4.824 -0.6767 -0.0538  0.1681
 2421SOL    HW1 7082   4.774   4.580   4.760 -1.0402  0.0893  0.4159
 2421SOL    HW2 7083   4.738   4.424   4.794  2.3945 -1.3831 -2.0443
 2422SOL     OW 7084   2.002   0.264   4.521  0.2228 -0.3845 -0.0040
 2422SOL    HW1 7085   1.980   0.193   4.454 -0.4579  0.2357 -0.4595
 2422SOL    HW2 7086   2.020   0.350   4.473 -1.3452  0.3450  0.6198
 2423SOL     OW 7087   3.585   0.750   4.561 -0.0870 -0.0055  0.0739
 2423SOL    HW1 7088   3.505   0.805   4.539  0.7754  1.0035 -0.6414
 2423SOL    HW2 7089   3.638   0.796   4.633  0.0458 -0.4802  0.2856
 2424SOL     OW 7090   1.787   1.954   4.373 -0.1354 -0.0462 -0.0050
 2424SOL    HW1 7091   1.859   1.925   4.310 -0.3192 -0.9567  0.1890
 2424SOL    HW2 7092   1.703   1.903   4.353 -0.2915 -0.0912  0.7498
 2425SOL     OW 7093   0.809   0.167   4.000 -0.8309 -0.8437  0.4326
 2425SOL    HW1 7094   0.740   0.240   3.992 -0.2764 -0.0802  2.2100
 2425SOL    HW2 7095   0.871   0.172   3.922 -4.3918 -3.4346 -2.9552
 2426SOL     OW 7096   2.002   3.995   2.005 -0.3251  0.4618  0.0948
 2426SOL    HW1 7097   2.047   4.047   2.078 -0.5062  1.1387 -0.2730
 2426SOL    HW2 7098   2.057   4.000   1.922  0.0038 -0.5096  0.2336
 2427SOL     OW 7099   0.061   2.707   0.242  0.5527  0.3004  0.7797
 2427SOL    HW1 7100  -0.013   2.773   0.250  0.3101  0.1344 -0.0129
 2427SOL    HW2 7101   0.127   2.722   0.315  0.6417  1.5948  0.4627
 2428SOL     OW 7102   1.506   3.439   0.188 -0.2987 -0.1814  0.1962
 2428SOL    HW1 7103   1.450   3.467   0.266 -0.5738  0.4001 -0.1999
 2428SOL    HW2 7104   1.493   3.341   0.171 -1.1190 -0.0715  0.1726
 2429SOL     OW 7105   3.259   4.029   0.423  0.3498 -0.0989 -0.6088
 2429SOL    HW1 7106   3.201   4.035   0.341 -0.6723  1.0848  0.1744
 2429SOL    HW2 7107   3.270   3.933   0.449 -1.8899 -0.3419 -0.3637
 2430SOL     OW 7108   1.257   3.487   1.565 -0.2409  0.2271  0.2816
 2430SOL    HW1 7109   1.244   3.587   1.569 -0.0472  0.4593 -2.6442
 2430SOL    HW2 7110   1.168   3.442   1.560 -0.2954  0.4018 -0.3540
 2431SOL     OW 7111   1.320   0.133   0.894 -0.3824  0.8327 -0.0610
 2431SOL    HW1 7112   1.261   0.064   0.935  0.4869  0.2163  0.1708
 2431SOL    HW2 7113   1.404   0.091   0.861  0.4184  1.8536  0.5917
 2432SOL     OW 7114   2.408   3.575   4.335 -0.1856  0.0479 -0.2596
 2432SOL    HW1 7115   2.492   3.523   4.350  0.1422  0.1359 -1.6439
 2432SOL    HW2 7116   2.377   3.614   4.422  0.7306 -0.6791  0.4214
 2433SOL     OW 7117   3.890   2.799   4.253 -0.2711  0.0628  0.0784
 2433SOL    HW1 7118   3.801   2.838   4.279 -1.3716 -2.2525  0.0245
 2433SOL    HW2 7119   3.942   2.778   4.336 -0.2314  0.3989  0.1416
 2434SOL     OW 7120   1.011   0.090   1.598  0.0494 -0.5277  0.4769
 2434SOL    HW1 7121   0.918   0.053   1.602 -0.3288  0.4872  3.5633
 2434SOL    HW2 7122   1.011   0.173   1.541 -0.3928 -1.7343 -1.3679
 2435SOL     OW 7123   4.267   3.602   0.780  0.2434  0.2629 -0.1513
 2435SOL    HW1 7124   4.200   3.631   0.848  0.1097  0.1115 -0.2161
 2435SOL    HW2 7125   4.276   3.671   0.708 -0.5885 -0.1558 -0.6779
 2436SOL     OW 7126   0.681   4.129   0.961  0.6314 -0.1222  0.0477
 2436SOL    HW1 7127   0.702   4.073   1.041 -1.1906  1.2093  1.5352
 2436SOL    HW2 7128   0.757   4.193   0.944  1.0039 -0.3693  0.7574
 2437SOL     OW 7129   5.025   4.969   2.551 -0.5077  0.3335 -0.0365
 2437SOL    HW1 7130   4.968   5.018   2.617 -1.8453  0.4966 -1.2767
 2437SOL    HW2 7131   5.048   5.030   2.475  1.1670  0.2012  0.3167
 2438SOL     OW 7132   4.055   1.717   1.475 -0.1210  1.0423  0.2397
 2438SOL    HW1 7133   4.025   1.801   1.429 -1.3047  0.4954 -0.0285
 2438SOL    HW2 7134   3.986   1.646   1.463  0.2880  0.3980  1.5292
 2439SOL     OW 7135   4.146   1.046   4.686  0.0741  0.2717 -0.1114
 2439SOL    HW1 7136   4.151   1.035   4.587 -0.3941 -1.3572  0.0304
 2439SOL    HW2 7137   4.100   0.968   4.727  2.7417 -0.5112  1.6722
 2440SOL     OW 7138   0.045   1.584   1.668  0.1377 -0.4064 -0.2004
 2440SOL    HW1 7139   0.039   1.545   1.575  1.7060  2.2349 -1.5388
 2440SOL    HW2 7140   0.005   1.676   1.668 -1.0332 -0.8479  2.1517
 2441SOL     OW 7141   0.227   1.696   2.385 -0.6525  0.4046 -0.3559
 2441SOL    HW1 7142   0.164   1.772   2.401 -0.6531  0.3296  0.0176
 2441SOL    HW2 7143   0.308   1.729   2.337 -1.3846  0.3278 -1.6904
 2442SOL     OW 7144   2.926   4.581   2.116  0.1170 -0.8397 -0.3972
 2442SOL    HW1 7145   2.926   4.644   2.193  1.9424 -1.6956  0.3651
 2442SOL    HW2 7146   2.854   4.513   2.128 -1.2094  0.4666 -0.7244
 2443SOL     OW 7147   3.727   4.312   2.153 -0.1271 -0.2851  0.1234
 2443SOL    HW1 7148   3.709   4.255   2.073  0.8954  1.8565 -1.7479
 2443SOL    HW2 7149   3.826   4.318   2.168 -0.3196 -2.1294  2.7621
 2444SOL     OW 7150   1.127   4.205   2.707 -0.4924  0.3468 -0.1216
 2444SOL    HW1 7151   1.160   4.127   2.760  1.0391  0.4421 -0.8710
 2444SOL    HW2 7152   1.204   4.263   2.681 -1.3785  1.1273 -1.1494
 2445SOL     OW 7153   0.438   1.826   1.884  0.1325  0.4944  0.5486
 2445SOL    HW1 7154   0.533   1.843   1.858 -0.4965  2.0486 -0.9120
 2445SOL    HW2 7155   0.397   1.911   1.916 -0.6724 -0.2595  1.5795
 2446SOL     OW 7156   0.568   3.046   2.897  0.0554 -0.1509  0.1342
 2446SOL    HW1 7157   0.609   3.137   2.904  0.0368  0.0235 -1.6621
 2446SOL    HW2 7158   0.469   3.055   2.886  0.0431 -0.3995  0.0346
 2447SOL     OW 7159   3.634   4.412   1.100  0.0135  0.4414 -0.0596
 2447SOL    HW1 7160   3.560   4.425   1.166  2.3003  0.5984  2.6867
 2447SOL    HW2 7161   3.630   4.320   1.063 -0.9409  0.0737  0.9131
 2448SOL     OW 7162   4.832   4.121   4.572 -0.1839 -0.1037 -0.2424
 2448SOL    HW1 7163   4.766   4.197   4.576  0.5623  0.5300  0.6821
 2448SOL    HW2 7164   4.806   4.051   4.639 -0.0467  0.0477 -0.0277
 2449SOL     OW 7165   4.973   4.014   1.249  0.0361  0.0462  0.1912
 2449SOL    HW1 7166   4.961   4.067   1.333  0.7969  1.2537 -0.4382
 2449SOL    HW2 7167   4.963   4.074   1.170  0.4196 -0.8578 -0.5638
 2450SOL     OW 7168   4.993   1.429   1.436  0.2180 -0.0244  0.7204
 2450SOL    HW1 7169   4.978   1.331   1.420  1.0228 -0.2001  1.0267
 2450SOL    HW2 7170   4.988   1.478   1.349 -0.0785 -0.3482  0.5515
 2451SOL     OW 7171   1.644   0.852   0.460  0.1522  0.1878  0.2101
 2451SOL    HW1 7172   1.658   0.753   0.465  0.4367  0.0249 -2.4079
 2451SOL    HW2 7173   1.610   0.876   0.369  1.1318  2.6112  0.4082
 2452SOL     OW 7174   3.371   0.884   4.528 -0.0521 -0.6069  0.2954
 2452SOL    HW1 7175   3.386   0.980   4.505 -0.2413 -0.1148  2.0837
 2452SOL    HW2 7176   3.275   0.861   4.512 -0.1796 -0.2808  0.5669
 2453SOL     OW 7177   3.742   4.183   1.594 -0.1016  0.2131  0.3559
 2453SOL    HW1 7178   3.815   4.186   1.663  0.9562 -1.7425 -0.5812
 2453SOL    HW2 7179   3.739   4.092   1.554 -3.9612 -0.1873  1.2061
 2454SOL     OW 7180   0.183   3.006   1.502  0.0823  0.0314  0.5264
 2454SOL    HW1 7181   0.282   2.999   1.519  0.6447  1.1686 -1.8640
 2454SOL    HW2 7182   0.140   3.057   1.577  1.6469  1.1903  0.6832
 2455SOL     OW 7183   4.775   1.871   3.478  0.2349  0.2189 -0.5192
 2455SOL    HW1 7184   4.823   1.954   3.506  1.2884 -0.1581 -1.1409
 2455SOL    HW2 7185   4.772   1.806   3.555 -0.9063  0.9575  0.0759
 2456SOL     OW 7186   2.628   3.974   2.352  0.0967  0.2220  0.0194
 2456SOL    HW1 7187   2.568   4.044   2.391  0.0672  0.5147 -0.5406
 2456SOL    HW2 7188   2.586   3.884   2.364 -1.3405  0.5736 -1.9313
 2457SOL     OW 7189   2.923   3.744   3.376  0.0038  0.0165 -0.1478
 2457SOL    HW1 7190   2.937   3.705   3.285 -1.2155  1.6517 -1.0756
 2457SOL    HW2 7191   3.012   3.769   3.415  0.6194 -1.6130 -0.4323
 2458SOL     OW 7192   0.519   1.443   4.554  0.2496 -0.1454  0.1515
 2458SOL    HW1 7193   0.594   1.399   4.604 -0.0020 -1.3652 -0.5064
 2458SOL    HW2 7194   0.436   1.440   4.609  0.3614 -0.0295  0.3260
 2459SOL     OW 7195   0.735   2.065   2.066 -0.0184 -0.3844  0.0657
 2459SOL    HW1 7196   0.817   2.106   2.027 -0.3214  1.2297  1.0667
 2459SOL    HW2 7197   0.656   2.086   2.007 -0.2866  1.0932  0.9214
 2460SOL     OW 7198   0.547   2.353   1.250 -0.1251  0.2405  0.0839
 2460SOL    HW1 7199   0.589   2.375   1.162 -2.0533  0.9849 -0.6995
 2460SOL    HW2 7200   0.562   2.257   1.272  0.8656  0.1932 -0.7682
 2461SOL     OW 7201   3.257   2.158   2.475  0.0874 -0.3194  0.3542
 2461SOL    HW1 7202   3.163   2.184   2.495 -0.5267 -0.0938 -2.4056
 2461SOL    HW2 7203   3.315   2.239   2.475  0.0444 -0.2870  0.8531
 2462SOL     OW 7204   5.037   2.299   4.958 -0.5802 -0.2945 -0.1766
 2462SOL    HW1 7205   4.945   2.297   4.999 -1.0592  0.6130 -1.1550
 2462SOL    HW2 7206   5.098   2.239   5.010 -0.9815  1.2680  2.2971
 2463SOL     OW 7207   2.171   1.878   1.630  0.6086 -0.1953 -0.1757
 2463SOL    HW1 7208   2.131   1.815   1.563 -1.0037  0.3970  0.1610
 2463SOL    HW2 7209   2.165   1.972   1.594 -2.2951  0.4139  1.5808
 2464SOL     OW 7210   3.141   1.304   1.231 -0.5598 -0.5779 -0.4413
 2464SOL    HW1 7211   3.074   1.351   1.289  0.5191 -0.6732  0.9514
 2464SOL    HW2 7212   3.150   1.209   1.261  0.0688 -0.6130 -0.7223
 2465SOL     OW 7213   4.433   0.347   0.870 -0.1997  0.0596  0.0637
 2465SOL    HW1 7214   4.469   0.267   0.823  0.7020 -0.1800  1.1146
 2465SOL    HW2 7215   4.392   0.410   0.804 -0.5596 -1.0784 -0.8130
 2466SOL     OW 7216   1.686   1.080   1.053 -0.2155  0.0087 -0.2316
 2466SOL    HW1 7217   1.606   1.028   1.081 -0.3760 -0.1725 -0.9932
 2466SOL    HW2 7218   1.750   1.020   1.005  0.7386 -0.0211  1.0137
 2467SOL     OW 7219   2.263   1.715   3.674  0.5745 -1.0225 -0.0592
 2467SOL    HW1 7220   2.173   1.691   3.638 -1.0066 -2.2871  4.0759
 2467SOL    HW2 7221   2.262   1.811   3.704  0.0396 -1.3831  1.1726
 2468SOL     OW 7222   2.331   1.071   4.109  0.2356 -0.4763  0.7415
 2468SOL    HW1 7223   2.381   1.016   4.042  1.4667  0.4965  0.8204
 2468SOL    HW2 7224   2.236   1.039   4.115  0.2053 -0.8595 -1.1437
 2469SOL     OW 7225   2.678   3.394   0.653 -0.4104  0.6959  0.3577
 2469SOL    HW1 7226   2.650   3.301   0.680 -0.5089  1.1761  2.0614
 2469SOL    HW2 7227   2.651   3.458   0.725  0.5414  1.9088 -0.3342
 2470SOL     OW 7228   3.247   1.775   0.978 -0.1861  0.0712  0.2973
 2470SOL    HW1 7229   3.315   1.846   0.964 -1.0382  1.3539  2.2682
 2470SOL    HW2 7230   3.157   1.817   0.990 -0.5365 -1.2185  2.6629
 2471SOL     OW 7231   1.164   0.838   2.708 -0.4432  0.8747  0.4446
 2471SOL    HW1 7232   1.132   0.929   2.683  1.3955  1.6822  0.9034
 2471SOL    HW2 7233   1.184   0.786   2.625  1.1612  1.9070  0.1339
 2472SOL     OW 7234   4.760   4.656   1.320  0.5553 -0.1359 -0.3414
 2472SOL    HW1 7235   4.798   4.748   1.306  1.0731 -0.5001 -1.4419
 2472SOL    HW2 7236   4.662   4.664   1.339  1.0588  0.7957  2.3387
 2473SOL     OW 7237   3.995   2.985   4.808 -0.0246  0.3486 -0.9768
 2473SOL    HW1 7238   3.970   2.906   4.753  2.1944 -0.6479 -0.6639
 2473SOL    HW2 7239   4.056   2.957   4.882 -1.0344  2.0240  0.5877
 2474SOL     OW 7240   1.310   2.722   2.477  0.5081  0.3328 -0.2960
 2474SOL    HW1 7241   1.290   2.633   2.517 -1.0309 -0.1850 -2.0764
 2474SOL    HW2 7242   1.280   2.794   2.539 -1.1993 -0.4284 -0.1781
 2475SOL     OW 7243   1.649   4.691   3.478  0.7329 -0.0569 -0.1869
 2475SOL    HW1 7244   1.607   4.781   3.469  1.2375  0.2489  0.4457
 2475SOL    HW2 7245   1.582   4.627   3.515  0.5211  0.1804 -0.1530
 2476SOL     OW 7246   1.623   4.367   0.908  0.1010  0.0695  0.4232
 2476SOL    HW1 7247   1.598   4.447   0.853  1.6607  0.3034  0.0056
 2476SOL    HW2 7248   1.714   4.381   0.948 -0.4402 -0.6657  1.9913
 2477SOL     OW 7249   1.046   2.685   4.214 -0.5896  0.1344  0.2759
 2477SOL    HW1 7250   1.127   2.695   4.273 -0.9167 -1.4518  1.0493
 2477SOL    HW2 7251   0.974   2.637   4.265 -1.3192 -0.1725 -1.0229
 2478SOL     OW 7252   0.353   5.005   3.669 -0.1460 -0.3600  0.3364
 2478SOL    HW1 7253   0.343   5.001   3.569 -0.0664 -0.4632  0.3326
 2478SOL    HW2 7254   0.271   5.047   3.709  1.1736  2.8406 -0.0330
 2479SOL     OW 7255   1.406   0.456   0.251  0.4402  0.3021  0.3168
 2479SOL    HW1 7256   1.430   0.494   0.340 -1.1489  0.8479  0.5378
 2479SOL    HW2 7257   1.477   0.391   0.222  1.4764  0.8719  1.5007
 2480SOL     OW 7258   1.408   2.603   4.113 -0.2278 -0.3699  0.1889
 2480SOL    HW1 7259   1.400   2.671   4.041 -0.5473  1.0373  1.4919
 2480SOL    HW2 7260   1.353   2.630   4.192  0.1602 -1.8113  1.0105
 2481SOL     OW 7261   1.729   0.190   4.288 -1.1846 -0.0122 -0.1792
 2481SOL    HW1 7262   1.803   0.125   4.272 -0.4310  0.9476 -0.6848
 2481SOL    HW2 7263   1.647   0.160   4.240 -0.6604 -0.2595 -0.9235
 2482SOL     OW 7264   1.334   2.871   3.195 -0.2073  0.1099 -0.0367
 2482SOL    HW1 7265   1.259   2.841   3.138  0.4304  0.0625 -0.8646
 2482SOL    HW2 7266   1.354   2.968   3.176 -1.3217  0.7134  1.5909
 2483SOL     OW 7267   4.992   0.159   0.025  0.4092  0.2231  0.3913
 2483SOL    HW1 7268   5.043   0.073   0.025  1.5506  0.8155 -2.0463
 2483SOL    HW2 7269   5.055   0.235   0.040 -0.3776  0.7547  1.1149
 2484SOL     OW 7270   1.552   1.784   1.519  0.0533 -0.1938  0.0341
 2484SOL    HW1 7271   1.572   1.769   1.422 -1.2252  1.3807 -0.5220
 2484SOL    HW2 7272   1.453   1.785   1.533  0.2155 -0.2231  1.3385
 2485SOL     OW 7273   0.566   2.343   3.459 -0.2181 -0.2969  0.1168
 2485SOL    HW1 7274   0.624   2.277   3.411  0.6188  0.5788 -0.1208
 2485SOL    HW2 7275   0.517   2.398   3.392  0.3700  0.4233  0.2611
 2486SOL     OW 7276   2.904   2.560   4.631 -0.0208 -0.0600 -0.1629
 2486SOL    HW1 7277   2.999   2.593   4.636  1.1321 -2.7447 -1.7296
 2486SOL    HW2 7278   2.869   2.574   4.539 -0.2258 -1.2120 -0.2824
 2487SOL     OW 7279   4.934   3.676   0.689 -0.1581  0.5909  0.6320
 2487SOL    HW1 7280   4.985   3.690   0.774  0.2345 -0.9669  0.6924
 2487SOL    HW2 7281   4.982   3.609   0.632 -0.3817  1.6483 -0.8600
 2488SOL     OW 7282   3.015   2.221   1.678 -0.5495  0.0218 -0.0263
 2488SOL    HW1 7283   3.079   2.171   1.620  0.3996  1.7201 -0.5101
 2488SOL    HW2 7284   3.029   2.194   1.773  2.0961  1.4602  0.1015
 2489SOL     OW 7285   4.619   3.396   0.111 -0.0115 -0.2026  0.8156
 2489SOL    HW1 7286   4.576   3.361   0.194 -1.2558 -1.6408 -0.3712
 2489SOL    HW2 7287   4.553   3.393   0.036  0.0495  3.9706  0.3609
 2490SOL     OW 7288   4.227   1.966   1.791  0.5281 -0.2506  0.2700
 2490SOL    HW1 7289   4.155   2.013   1.843  1.9791 -0.3732  2.5190
 2490SOL    HW2 7290   4.224   1.868   1.813  0.2623 -0.5575 -1.0541
 2491SOL     OW 7291   4.946   2.922   2.044 -0.2756 -0.0930 -0.2679
 2491SOL    HW1 7292   5.009   2.880   2.109  0.7294  1.9387  0.1314
 2491SOL    HW2 7293   4.853   2.892   2.063 -0.0432  0.6408  2.2985
 2492SOL     OW 7294   4.251   4.871   2.629  0.2141 -0.1617 -0.5004
 2492SOL    HW1 7295   4.324   4.909   2.685  1.1029 -1.6387 -0.5868
 2492SOL    HW2 7296   4.195   4.810   2.684  0.5738 -0.9587 -0.9972
 2493SOL     OW 7297   3.681   2.616   2.814  0.2659  0.3342 -0.4996
 2493SOL    HW1 7298   3.697   2.578   2.905  0.9939 -2.4780 -1.6930
 2493SOL    HW2 7299   3.753   2.681   2.792  1.0305 -0.2253  0.2984
 2494SOL     OW 7300   3.152   4.060   3.330 -0.3317  0.2115 -0.1329
 2494SOL    HW1 7301   3.221   4.025   3.394  0.7023 -3.8025 -3.0163
 2494SOL    HW2 7302   3.068   4.082   3.380  1.3995  0.4516  2.8928
 2495SOL     OW 7303   4.912   1.523   2.299 -0.0875 -0.2470 -0.3787
 2495SOL    HW1 7304   5.002   1.508   2.259  0.3589 -0.2991  0.6264
 2495SOL    HW2 7305   4.858   1.439   2.293 -0.1628 -0.1411 -1.2114
 2496SOL     OW 7306   0.177   2.833   0.451 -0.4920  0.1763 -0.2377
 2496SOL    HW1 7307   0.142   2.921   0.483  0.1582  0.8287 -1.2494
 2496SOL    HW2 7308   0.160   2.763   0.520 -1.4606  0.9922  0.3717
 2497SOL     OW 7309   3.275   3.607   1.589 -0.0567  0.5639 -0.2685
 2497SOL    HW1 7310   3.366   3.594   1.628  0.0026 -0.3600 -0.6821
 2497SOL    HW2 7311   3.213   3.642   1.659  0.2064 -0.4525  0.5038
 2498SOL     OW 7312   1.623   0.013   0.074 -0.0226  0.3547  0.0223
 2498SOL    HW1 7313   1.611   0.059   0.162  1.9891  0.2808  0.3870
 2498SOL    HW2 7314   1.721   0.003   0.055 -0.4062  0.3543 -2.2259
 2499SOL     OW 7315   2.607   0.933   3.941  0.6174 -0.4516  0.6534
 2499SOL    HW1 7316   2.692   0.985   3.929  0.2769  0.6602  2.5696
 2499SOL    HW2 7317   2.531   0.985   3.902  0.5928 -0.7052  0.3558
 2500SOL     OW 7318   0.085   3.596   1.903  0.1381  0.1260  0.3934
 2500SOL    HW1 7319   0.133   3.681   1.882 -0.4573  0.5375  0.6656
 2500SOL    HW2 7320   0.120   3.559   1.989  1.6406 -0.8550 -0.6049
 2501SOL     OW 7321   0.709   3.409   4.230 -0.4932 -0.2142  0.1776
 2501SOL    HW1 7322   0.718   3.501   4.268 -2.2106 -0.2336  0.7152
 2501SOL    HW2 7323   0.756   3.404   4.142  0.4436  0.8858  0.5949
 2502SOL     OW 7324   3.900   0.925   3.117  0.0340 -0.3871 -0.1178
 2502SOL    HW1 7325   3.959   0.899   3.194  0.1117  0.5836  0.1561
 2502SOL    HW2 7326   3.811   0.880   3.126  0.2900 -0.8479  0.1493
 2503SOL     OW 7327   2.880   0.871   1.893  0.7091  0.3402 -0.1017
 2503SOL    HW1 7328   2.810   0.818   1.846  1.3004  0.4449 -1.1237
 2503SOL    HW2 7329   2.836   0.937   1.954 -0.0427 -0.7895  0.6168
 2504SOL     OW 7330   4.430   4.925   0.890  0.1727  0.3365  0.2391
 2504SOL    HW1 7331   4.465   4.872   0.813 -1.3335  1.3872 -1.2606
 2504SOL    HW2 7332   4.441   5.023   0.870 -0.5862  0.6325  1.2027
 2505SOL     OW 7333   1.497   0.477   2.996 -0.2807  0.2038 -0.4589
 2505SOL    HW1 7334   1.588   0.508   2.968  0.4474 -1.4078 -0.0183
 2505SOL    HW2 7335   1.482   0.384   2.961 -0.9612 -0.2913  1.0854
 2506SOL     OW 7336   3.450   3.688   4.986  0.5164  0.2191  0.2408
 2506SOL    HW1 7337   3.401   3.716   4.903  2.0396 -0.1784 -0.8522
 2506SOL    HW2 7338   3.524   3.626   4.961  1.0723  0.1607  1.9076
 2507SOL     OW 7339   2.454   4.556   3.369  0.0944 -0.6379  0.4452
 2507SOL    HW1 7340   2.409   4.468   3.384  2.4102 -1.6685  1.9851
 2507SOL    HW2 7341   2.441   4.614   3.450 -1.4286  0.5211 -0.5626
 2508SOL     OW 7342   2.666   2.924   3.788  0.4433  0.0126  0.1173
 2508SOL    HW1 7343   2.756   2.889   3.760 -0.4933 -1.0987 -1.6558
 2508SOL    HW2 7344   2.649   3.012   3.743 -0.0315 -0.5953 -0.9386
 2509SOL     OW 7345   0.669   0.698   2.705  0.3691 -0.4192 -0.4918
 2509SOL    HW1 7346   0.748   0.729   2.758  0.7469 -1.6474 -0.3236
 2509SOL    HW2 7347   0.654   0.761   2.629  1.0306  0.2544 -0.0782
 2510SOL     OW 7348   1.205   3.530   1.941  0.1625  0.4890 -0.4844
 2510SOL    HW1 7349   1.224   3.584   1.859 -0.3708  0.6761 -0.4897
 2510SOL    HW2 7350   1.132   3.465   1.921  1.6452 -1.1368 -0.8598
 2511SOL     OW 7351   3.389   1.666   3.664  0.2278  0.0762 -0.1535
 2511SOL    HW1 7352   3.391   1.672   3.564  3.6230 -2.1413 -0.4007
 2511SOL    HW2 7353   3.294   1.660   3.695 -1.0597  2.7493 -2.9892
 2512SOL     OW 7354   4.775   2.315   3.619 -0.3707  0.1906 -0.4134
 2512SOL    HW1 7355   4.765   2.343   3.524  1.6413 -0.0206 -0.7327
 2512SOL    HW2 7356   4.812   2.392   3.672  2.4782 -0.8381 -0.7160
 2513SOL     OW 7357   3.167   1.362   3.955  0.5335 -0.5543  0.6725
 2513SOL    HW1 7358   3.154   1.447   4.007 -0.4702 -0.3754  0.1688
 2513SOL    HW2 7359   3.264   1.349   3.935  0.5725  1.5604 -0.9694
 2514SOL     OW 7360   0.750   4.554   0.515  0.2739 -0.2256 -0.0038
 2514SOL    HW1 7361   0.767   4.606   0.432  2.6574  0.0151  0.5574
 2514SOL    HW2 7362   0.703   4.611   0.582 -1.4733 -0.3571 -1.0562
 2515SOL     OW 7363   0.942   3.568   3.817 -0.3133 -0.6323 -0.7049
 2515SOL    HW1 7364   0.937   3.586   3.719 -0.8245 -0.5798 -0.6707
 2515SOL    HW2 7365   0.964   3.653   3.865  0.8760 -0.8426 -0.8465
 2516SOL     OW 7366   3.497   0.226   0.272  0.5988  0.5676 -0.4755
 2516SOL    HW1 7367   3.405   0.197   0.246  1.3130 -2.0968 -0.3400
 2516SOL    HW2 7368   3.553   0.238   0.190  0.6793  0.1272 -0.4877
 2517SOL     OW 7369   0.710   4.991   4.216 -0.1982  0.3164  0.4584
 2517SOL    HW1 7370   0.803   4.970   4.247  0.2896  0.1459 -1.0288
 2517SOL    HW2 7371   0.689   5.086   4.238  1.2414  1.0774 -1.2275
 2518SOL     OW 7372   4.669   1.665   0.372  0.0398  0.6293 -0.0845
 2518SOL    HW1 7373   4.586   1.640   0.322  0.1656 -0.6059  0.3036
 2518SOL    HW2 7374   4.729   1.719   0.313 -0.0597 -0.3384 -1.0951
 2519SOL     OW 7375   0.275   3.625   4.976  0.2424 -0.7235  0.3249
 2519SOL    HW1 7376   0.276   3.541   4.921  0.5642 -0.9221  0.6272
 2519SOL    HW2 7377   0.181   3.647   5.003  0.1704 -1.0485  0.3380
 2520SOL     OW 7378   2.168   0.072   2.241  0.7985 -0.1386 -0.4601
 2520SOL    HW1 7379   2.068   0.059   2.239  0.4480  2.2196 -0.5264
 2520SOL    HW2 7380   2.199   0.099   2.150  1.1601  1.2597  0.0665
 2521SOL     OW 7381   0.601   4.892   4.459 -0.2260 -0.2433  0.3416
 2521SOL    HW1 7382   0.643   4.930   4.377  1.2784 -0.5533  0.9338
 2521SOL    HW2 7383   0.586   4.965   4.526  2.9211 -0.5863  1.5896
 2522SOL     OW 7384   4.425   0.978   3.108 -0.3036  0.2772 -0.2613
 2522SOL    HW1 7385   4.371   0.894   3.116 -0.4161  0.3162 -0.5784
 2522SOL    HW2 7386   4.468   0.981   3.018  1.6558 -0.5847  0.6062
 2523SOL     OW 7387   2.695   1.887   3.105 -0.1141 -0.6619  0.1323
 2523SOL    HW1 7388   2.607   1.840   3.112 -0.5713  0.2748  0.9892
 2523SOL    HW2 7389   2.744   1.878   3.192  0.3343 -0.5768 -0.1068
 2524SOL     OW 7390   4.878   0.612   3.734 -0.2656 -0.0577  0.0086
 2524SOL    HW1 7391   4.791   0.654   3.759 -0.0239 -0.5931  1.8390
 2524SOL    HW2 7392   4.880   0.517   3.766  1.4462  0.3034  1.0802
 2525SOL     OW 7393   4.107   2.312   3.984 -0.4600  0.0826  0.0805
 2525SOL    HW1 7394   4.201   2.279   3.973 -0.8823 -1.7961  1.6895
 2525SOL    HW2 7395   4.057   2.297   3.898  0.1428 -0.8381 -0.1212
 2526SOL     OW 7396   2.691   3.711   1.227 -0.8203  0.4178  0.4231
 2526SOL    HW1 7397   2.687   3.771   1.307 -0.0727  1.5745 -0.3796
 2526SOL    HW2 7398   2.675   3.765   1.144  0.9915 -0.2649 -0.4101
 2527SOL     OW 7399   2.935   1.325   0.463 -0.1160 -0.3966  0.1618
 2527SOL    HW1 7400   3.034   1.327   0.447 -0.1796  0.2938 -0.1770
 2527SOL    HW2 7401   2.893   1.407   0.423 -0.5810  0.3103  2.0103
 2528SOL     OW 7402   3.394   1.094   1.914  0.0161  0.7836 -0.2190
 2528SOL    HW1 7403   3.323   1.129   1.853 -1.0315  0.0923  0.5504
 2528SOL    HW2 7404   3.481   1.092   1.867 -0.7471  0.3409 -1.6541
 2529SOL     OW 7405   0.782   2.506   1.304 -0.1405 -0.1650  0.1596
 2529SOL    HW1 7406   0.762   2.556   1.388  0.1381 -0.4461  0.3937
 2529SOL    HW2 7407   0.696   2.477   1.262 -0.2400 -1.5637  1.2803
 2530SOL     OW 7408   0.755   2.535   0.128  0.2891  0.2783  0.1359
 2530SOL    HW1 7409   0.718   2.610   0.183 -0.3738  0.0680 -0.0097
 2530SOL    HW2 7410   0.680   2.489   0.081  0.5675 -1.1456  1.0453
 2531SOL     OW 7411   0.321   0.682   2.038 -0.0624  0.2414  0.0814
 2531SOL    HW1 7412   0.410   0.725   2.028 -0.1783  0.2056 -1.3854
 2531SOL    HW2 7413   0.324   0.589   2.000 -0.3535 -0.3124  1.3526
 2532SOL     OW 7414   0.991   3.624   3.567  0.2639 -0.1054  0.5489
 2532SOL    HW1 7415   0.979   3.723   3.560 -0.0821 -0.0926  1.2432
 2532SOL    HW2 7416   0.962   3.580   3.483  0.0761  0.3551  0.3751
 2533SOL     OW 7417   4.250   1.167   3.887  0.1288 -0.1531  0.2217
 2533SOL    HW1 7418   4.156   1.199   3.899  0.0387 -0.5047  0.4660
 2533SOL    HW2 7419   4.296   1.223   3.818 -0.4588 -0.3880 -0.3634
 2534SOL     OW 7420   2.936   4.613   2.826 -0.3264  0.5593 -0.8003
 2534SOL    HW1 7421   2.929   4.529   2.880 -0.3596 -0.2791 -2.0788
 2534SOL    HW2 7422   2.957   4.689   2.887  0.2936 -0.4612  0.3187
 2535SOL     OW 7423   3.147   3.465   3.327  0.3358 -0.3962  0.6038
 2535SOL    HW1 7424   3.137   3.440   3.230 -0.1699 -0.2698  0.6173
 2535SOL    HW2 7425   3.067   3.433   3.377  0.1527  0.3473  0.8075
 2536SOL     OW 7426   0.721   1.169   2.530  0.3987  0.9611 -0.3764
 2536SOL    HW1 7427   0.739   1.095   2.466 -2.3443 -1.0213  0.9212
 2536SOL    HW2 7428   0.802   1.187   2.586  1.9267  0.8214 -2.4476
 2537SOL     OW 7429   3.367   4.155   0.883 -0.2210  0.2492  0.0341
 2537SOL    HW1 7430   3.455   4.154   0.931 -0.1036  0.6068 -0.1722
 2537SOL    HW2 7431   3.321   4.067   0.896  0.2507 -0.0071 -0.0130
 2538SOL     OW 7432   4.677   1.690   2.292 -0.2802  0.0542  0.0614
 2538SOL    HW1 7433   4.766   1.644   2.296  0.2503  0.9039 -1.2608
 2538SOL    HW2 7434   4.688   1.785   2.320 -0.9306 -0.0308  0.6237
 2539SOL     OW 7435   4.452   2.957   1.014 -0.8979  0.4012 -0.1510
 2539SOL    HW1 7436   4.529   2.951   1.077  0.1950  0.2105 -1.4450
 2539SOL    HW2 7437   4.421   3.052   1.009 -1.8016  0.2300  1.5433
 2540SOL     OW 7438   3.189   3.426   1.423  0.1955 -0.0653 -0.5602
 2540SOL    HW1 7439   3.168   3.460   1.332  1.5361  1.9835 -0.1599
 2540SOL    HW2 7440   3.215   3.502   1.483 -1.8528 -1.1344  1.9338
 2541SOL     OW 7441   3.161   0.474   2.474  0.6505  0.1439 -0.3637
 2541SOL    HW1 7442   3.175   0.440   2.567  0.9188  0.1655 -0.3967
 2541SOL    HW2 7443   3.123   0.400   2.418  0.5372  0.1157 -0.2494
 2542SOL     OW 7444   0.049   1.905   2.403  0.0392 -0.3170 -0.0362
 2542SOL    HW1 7445   0.026   1.997   2.372 -0.5601 -0.7555 -0.9504
 2542SOL    HW2 7446  -0.032   1.860   2.439  0.6772  0.0968  2.0526
 2543SOL     OW 7447   3.384   2.736   0.763 -0.3761 -0.3371 -0.6881
 2543SOL    HW1 7448   3.468   2.769   0.719  0.4292 -1.4454 -0.0415
 2543SOL    HW2 7449   3.365   2.643   0.732 -0.9066 -0.3931 -0.2030
 2544SOL     OW 7450   1.233   3.713   1.736  0.4255  0.0249  0.5602
 2544SOL    HW1 7451   1.148   3.755   1.702  0.6683 -0.7635 -1.1012
 2544SOL    HW2 7452   1.298   3.785   1.761  0.1958  0.6447 -0.5794
 2545SOL     OW 7453   3.405   3.407   0.590  0.6424 -0.0581 -0.3690
 2545SOL    HW1 7454   3.346   3.421   0.511  0.6194 -1.1929 -0.5799
 2545SOL    HW2 7455   3.499   3.431   0.566  0.5127  0.3096 -0.5070
 2546SOL     OW 7456   2.235   1.970   1.371  0.3277  0.7874 -0.4086
 2546SOL    HW1 7457   2.242   1.882   1.324 -1.4013  0.7383 -0.6456
 2546SOL    HW2 7458   2.324   1.994   1.410  1.6281  0.3978 -2.9162
 2547SOL     OW 7459   2.889   1.384   3.937 -0.0189 -0.2846  0.0268
 2547SOL    HW1 7460   2.988   1.374   3.927  0.2854  1.9045  0.3586
 2547SOL    HW2 7461   2.847   1.389   3.847  0.2135 -0.7859 -0.1136
 2548SOL     OW 7462   3.866   1.212   0.138 -0.3636  0.3233 -0.0851
 2548SOL    HW1 7463   3.871   1.311   0.122  0.6824  0.4492  0.8848
 2548SOL    HW2 7464   3.955   1.179   0.168 -1.4856 -0.2850  2.9693
 2549SOL     OW 7465   3.608   2.838   0.639  0.0154  0.2790 -0.3773
 2549SOL    HW1 7466   3.637   2.924   0.597 -2.1795  0.1213 -2.3990
 2549SOL    HW2 7467   3.665   2.820   0.720  1.6846  2.7013 -0.8953
 2550SOL     OW 7468   3.928   0.717   0.077  0.3587 -0.3977 -0.2882
 2550SOL    HW1 7469   3.972   0.780   0.141 -0.6701  0.9548 -0.8610
 2550SOL    HW2 7470   3.833   0.704   0.103 -0.0370  0.0493 -1.4066
 2551SOL     OW 7471   1.627   0.580   4.071 -0.2602  0.2325  0.7210
 2551SOL    HW1 7472   1.669   0.547   4.155  1.4477  0.3292 -0.0501
 2551SOL    HW2 7473   1.601   0.502   4.014 -0.5749  0.1853  0.9216
 2552SOL     OW 7474   4.337   2.133   4.380 -0.6310  0.1473  0.1707
 2552SOL    HW1 7475   4.409   2.199   4.358 -0.8279  0.3480  0.1213
 2552SOL    HW2 7476   4.363   2.080   4.460  0.8905 -1.8024 -1.5067
 2553SOL     OW 7477   4.509   3.346   2.003  0.2441  0.4743 -0.2701
 2553SOL    HW1 7478   4.523   3.282   1.928  0.0014  2.0994 -1.7823
 2553SOL    HW2 7479   4.421   3.393   1.991 -0.6143 -0.4266  1.9979
 2554SOL     OW 7480   4.256   3.443   1.956  0.2031 -0.0852  0.2224
 2554SOL    HW1 7481   4.251   3.486   1.866  0.1435 -2.2004 -0.8286
 2554SOL    HW2 7482   4.194   3.490   2.019 -1.9342 -0.2953 -1.5990
 2555SOL     OW 7483   0.373   1.799   1.458 -0.5684  0.2128  0.1434
 2555SOL    HW1 7484   0.328   1.883   1.488  0.3600 -0.1988  3.0587
 2555SOL    HW2 7485   0.359   1.728   1.527 -2.7278 -2.6712 -2.9257
 2556SOL     OW 7486   3.644   0.004   2.817 -0.2785  0.1210  0.2945
 2556SOL    HW1 7487   3.724  -0.031   2.768 -1.1316 -0.0425 -1.0096
 2556SOL    HW2 7488   3.675   0.063   2.892  1.1091 -1.3578  0.9477
 2557SOL     OW 7489   4.607   0.087   2.254  0.6242 -0.1053  0.0870
 2557SOL    HW1 7490   4.539   0.058   2.186  0.9171 -0.5239 -0.0235
 2557SOL    HW2 7491   4.692   0.037   2.241  0.7160 -0.1185  0.7052
 2558SOL     OW 7492   2.437   4.782   1.335 -0.5586 -0.1796  0.4888
 2558SOL    HW1 7493   2.375   4.851   1.296 -0.1284 -0.3542 -0.5351
 2558SOL    HW2 7494   2.442   4.795   1.434 -1.9311  0.0751  0.5473
 2559SOL     OW 7495   3.306   3.274   4.157 -0.8422  0.1608  0.4009
 2559SOL    HW1 7496   3.392   3.297   4.111 -0.5165  1.4226  1.5563
 2559SOL    HW2 7497   3.230   3.322   4.112 -0.7132  0.3200  0.3518
 2560SOL     OW 7498   1.670   1.731   3.225 -0.0456 -0.3976 -0.3201
 2560SOL    HW1 7499   1.666   1.657   3.158 -1.7745 -2.1182  1.5342
 2560SOL    HW2 7500   1.723   1.701   3.304  0.2848  0.8577 -0.0455
 2561SOL     OW 7501   1.134   3.654   0.164 -0.3084  0.2051 -0.7607
 2561SOL    HW1 7502   1.189   3.677   0.244 -0.7617  1.1035 -0.6889
 2561SOL    HW2 7503   1.168   3.570   0.123  0.8757  0.5331 -0.4894
 2562SOL     OW 7504   3.072   0.785   0.406  0.9917  0.0706 -0.2023
 2562SOL    HW1 7505   3.086   0.694   0.444 -0.2109 -0.8566 -1.8338
 2562SOL    HW2 7506   3.095   0.785   0.309  0.2190  1.2789 -0.4160
 2563SOL     OW 7507   2.092   2.090   4.846  0.5309  0.3757 -0.0516
 2563SOL    HW1 7508   2.162   2.024   4.821  1.8558  2.0797 -1.0362
 2563SOL    HW2 7509   2.049   2.062   4.933  1.3749 -1.4657 -0.1888
 2564SOL     OW 7510   1.635   3.575   0.454 -0.0038 -0.1613 -0.0241
 2564SOL    HW1 7511   1.625   3.479   0.479 -0.5109 -0.1273 -0.0773
 2564SOL    HW2 7512   1.650   3.583   0.356 -1.1605 -0.1282 -0.2110
 2565SOL     OW 7513   1.596   4.858   4.737 -0.7721  0.4865 -0.2642
 2565SOL    HW1 7514   1.679   4.835   4.787 -1.3192  0.8629  0.8579
 2565SOL    HW2 7515   1.615   4.861   4.639 -0.2581 -2.9079 -0.3856
 2566SOL     OW 7516   0.117   0.290   3.162 -0.2647  0.5636  0.0340
 2566SOL    HW1 7517   0.073   0.231   3.230 -0.5032  0.0417 -0.5654
 2566SOL    HW2 7518   0.058   0.368   3.143 -1.7582 -0.9345 -1.9389
 2567SOL     OW 7519   2.204   1.807   0.804 -0.2519  0.0369  0.1168
 2567SOL    HW1 7520   2.122   1.844   0.761 -0.1721  0.3764  0.2502
 2567SOL    HW2 7521   2.283   1.862   0.777 -0.2126  0.3057  0.7630
 2568SOL     OW 7522   0.068   4.819   0.748  0.1593 -0.1223  0.1646
 2568SOL    HW1 7523  -0.019   4.848   0.789  0.0638 -1.6028  1.0683
 2568SOL    HW2 7524   0.067   4.839   0.650 -1.1832 -0.0914  0.1710
 2569SOL     OW 7525   0.475   0.543   1.062 -0.0808 -0.4434 -0.2789
 2569SOL    HW1 7526   0.398   0.566   1.122  1.4292  1.8966  0.9223
 2569SOL    HW2 7527   0.513   0.627   1.023  1.3062 -1.6155 -1.6057
 2570SOL     OW 7528   0.976   1.882   0.656  0.7949  0.4527  0.1091
 2570SOL    HW1 7529   0.936   1.854   0.744  0.6713  0.2605 -0.0069
 2570SOL    HW2 7530   0.934   1.968   0.626 -0.2582 -0.2465 -0.4889
 2571SOL     OW 7531   2.946   0.718   2.263  0.2282  0.4238 -0.6140
 2571SOL    HW1 7532   2.884   0.796   2.269 -0.1110  0.0915  0.4886
 2571SOL    HW2 7533   2.897   0.639   2.227 -0.3081 -0.1172  1.1986
 2572SOL     OW 7534   3.418   2.320   4.027 -0.4279  0.1318 -0.4982
 2572SOL    HW1 7535   3.344   2.259   4.055  0.4551 -0.7742 -0.0993
 2572SOL    HW2 7536   3.411   2.336   3.929 -0.8099 -0.4169 -0.5697
 2573SOL     OW 7537   3.271   4.648   3.711  0.3661  0.0067 -0.1684
 2573SOL    HW1 7538   3.327   4.573   3.676  1.4505  1.1402 -0.9586
 2573SOL    HW2 7539   3.277   4.650   3.811  0.8906 -0.5282 -0.1818
 2574SOL     OW 7540   1.706   2.412   2.328  0.2610 -0.1646  0.0549
 2574SOL    HW1 7541   1.805   2.415   2.318  0.1641 -0.9547 -1.4689
 2574SOL    HW2 7542   1.666   2.495   2.288  0.3328  0.4832  1.2976
 2575SOL     OW 7543   2.251   1.783   2.388  0.2655  0.0253  0.7440
 2575SOL    HW1 7544   2.338   1.738   2.366 -0.7823 -1.8935  0.3698
 2575SOL    HW2 7545   2.216   1.749   2.475 -0.8061 -0.3210  0.1971
 2576SOL     OW 7546   1.234   3.260   0.469 -0.3430 -0.9497  0.7647
 2576SOL    HW1 7547   1.286   3.289   0.549  0.2160  3.4902 -0.9030
 2576SOL    HW2 7548   1.283   3.188   0.421  1.9628 -0.0968  1.7106
 2577SOL     OW 7549   0.651   3.719   3.937  0.5108 -0.5624  0.0676
 2577SOL    HW1 7550   0.684   3.625   3.925 -0.2242 -0.9868  1.2331
 2577SOL    HW2 7551   0.571   3.719   3.997  1.8183  1.0511  1.9242
 2578SOL     OW 7552   3.235   4.674   3.419  0.1108 -0.7613 -0.0973
 2578SOL    HW1 7553   3.207   4.701   3.511 -0.3961 -0.0566 -0.4513
 2578SOL    HW2 7554   3.225   4.575   3.409  0.1387 -0.8383  0.5888
 2579SOL     OW 7555   1.755   1.694   0.182 -0.4685  0.3291 -0.3434
 2579SOL    HW1 7556   1.733   1.647   0.096 -2.8902  0.8282 -0.0864
 2579SOL    HW2 7557   1.706   1.650   0.257  0.1687  1.0222  0.4978
 2580SOL     OW 7558   0.727   0.685   3.940  0.3490 -0.1597  0.2734
 2580SOL    HW1 7559   0.826   0.682   3.922  0.4768  1.7389  0.5531
 2580SOL    HW2 7560   0.689   0.769   3.902 -0.8642 -0.0603  1.6630
 2581SOL     OW 7561   1.619   1.946   2.560  0.2608  0.2812  0.3425
 2581SOL    HW1 7562   1.526   1.914   2.540  1.5361 -3.3596 -0.5802
 2581SOL    HW2 7563   1.650   2.007   2.486 -0.7986  0.1858 -0.2033
 2582SOL     OW 7564   0.700   2.099   1.298 -0.5607  0.5758  0.1286
 2582SOL    HW1 7565   0.752   2.112   1.213 -2.2476  2.2998 -0.7089
 2582SOL    HW2 7566   0.672   2.003   1.305  1.6697 -0.1425  0.0226
 2583SOL     OW 7567   1.451   1.665   2.896  0.2344 -0.2380  0.1642
 2583SOL    HW1 7568   1.421   1.634   2.805 -0.0192 -1.4929  0.6526
 2583SOL    HW2 7569   1.488   1.587   2.947 -0.1044  0.3455  1.3380
 2584SOL     OW 7570   0.775   0.466   3.491  0.1677  0.7853  0.0937
 2584SOL    HW1 7571   0.843   0.440   3.423  0.1194  1.8629 -0.3819
 2584SOL    HW2 7572   0.818   0.522   3.562 -0.1204  1.0920  0.0306
 2585SOL     OW 7573   1.502   3.158   2.439 -0.3757 -0.1955 -0.2762
 2585SOL    HW1 7574   1.509   3.061   2.459  1.1535 -0.0194  0.1671
 2585SOL    HW2 7575   1.417   3.194   2.478 -0.1564 -1.0228  1.0364
 2586SOL     OW 7576   0.178   3.021   4.389  0.4073  0.1512 -0.1094
 2586SOL    HW1 7577   0.240   2.975   4.326  0.4500  0.0256  0.0239
 2586SOL    HW2 7578   0.131   3.095   4.341  2.7857  2.1953  0.4965
 2587SOL     OW 7579   1.309   0.443   3.794  0.6891  0.1829 -0.2356
 2587SOL    HW1 7580   1.300   0.540   3.818 -1.2994 -0.2777  1.0982
 2587SOL    HW2 7581   1.370   0.434   3.716  0.8469  2.5153 -0.4521
 2588SOL     OW 7582   0.117   3.440   3.859  0.4035 -0.4250  0.4641
 2588SOL    HW1 7583   0.191   3.399   3.912  0.4095 -1.6388 -0.4348
 2588SOL    HW2 7584   0.082   3.520   3.907  2.4955  0.3727  0.7723
 2589SOL     OW 7585   2.096   3.978   0.732  0.0370 -0.6664  0.2986
 2589SOL    HW1 7586   2.122   4.044   0.661  1.4259 -2.4900 -0.9881
 2589SOL    HW2 7587   2.166   3.978   0.804  0.3493 -1.1042  0.0047
 2590SOL     OW 7588   3.749   0.686   1.154  0.1964 -0.2803  0.1959
 2590SOL    HW1 7589   3.829   0.637   1.120 -0.2572 -0.5036 -0.5807
 2590SOL    HW2 7590   3.692   0.714   1.077 -0.1387  0.4606  0.7028
 2591SOL     OW 7591   0.785   5.031   2.199  0.2561 -0.3599  0.2227
 2591SOL    HW1 7592   0.703   4.983   2.229  0.9501 -2.0282 -0.3967
 2591SOL    HW2 7593   0.786   5.124   2.236 -1.8953 -0.2959  0.2263
 2592SOL     OW 7594   4.482   1.370   4.512  0.0819 -0.4057 -0.2008
 2592SOL    HW1 7595   4.515   1.436   4.579  1.4054  0.0294 -1.2520
 2592SOL    HW2 7596   4.457   1.285   4.559 -0.1750  0.2977  0.9715
 2593SOL     OW 7597   3.147   0.973   5.007 -0.1734  0.4451 -0.6181
 2593SOL    HW1 7598   3.225   1.032   4.986 -0.5350  0.5793 -1.6169
 2593SOL    HW2 7599   3.084   1.022   5.067  1.2171 -0.2002  1.4922
 2594SOL     OW 7600   4.168   1.178   3.106  0.0905 -0.5265 -0.2371
 2594SOL    HW1 7601   4.126   1.208   3.020  1.2293  2.3901  0.1107
 2594SOL    HW2 7602   4.255   1.132   3.086  0.0426 -0.4458 -0.6425
 2595SOL     OW 7603   1.973   3.132   0.246 -0.6582  0.3260 -0.1588
 2595SOL    HW1 7604   2.018   3.200   0.304 -0.6932  0.4270 -0.2497
 2595SOL    HW2 7605   2.042   3.068   0.210 -0.5690  0.5519 -0.3936
 2596SOL     OW 7606   1.080   3.333   3.704 -0.5272 -0.3533 -0.8926
 2596SOL    HW1 7607   1.119   3.425   3.688  1.0189 -0.4663  1.6601
 2596SOL    HW2 7608   0.981   3.341   3.717 -0.5799  0.7950 -1.7845
 2597SOL     OW 7609   4.617   3.739   2.229 -0.2061  0.3574 -0.8301
 2597SOL    HW1 7610   4.696   3.730   2.168 -0.7244 -0.8696 -1.3408
 2597SOL    HW2 7611   4.534   3.750   2.175 -0.3682  2.0376 -0.2921
 2598SOL     OW 7612   2.048   4.273   2.208  0.8462 -0.0849  0.2055
 2598SOL    HW1 7613   1.967   4.261   2.150  0.6507 -0.3364  0.5257
 2598SOL    HW2 7614   2.032   4.350   2.270  0.5820 -0.5590  0.7268
 2599SOL     OW 7615   1.440   1.354   2.253 -0.0584  0.4953  0.1745
 2599SOL    HW1 7616   1.370   1.424   2.241 -1.3933 -1.0940 -2.0685
 2599SOL    HW2 7617   1.530   1.393   2.233 -0.9049  1.3106 -2.5581
 2600SOL     OW 7618   0.426   2.085   4.864  0.7582 -0.5894  0.3817
 2600SOL    HW1 7619   0.355   2.109   4.930  1.5772  0.4440  0.9111
 2600SOL    HW2 7620   0.452   1.989   4.877  0.1885 -0.6815  0.8723
 2601SOL     OW 7621   3.624   4.122   1.983 -0.1983 -0.9801 -0.6964
 2601SOL    HW1 7622   3.650   4.136   1.887  0.6826 -2.5591 -0.7214
 2601SOL    HW2 7623   3.543   4.064   1.987 -1.1630  0.3457 -0.5005
 2602SOL     OW 7624   4.130   3.678   2.142 -0.4669 -0.0365  0.4976
 2602SOL    HW1 7625   4.110   3.773   2.165 -0.1214  0.6063 -1.6524
 2602SOL    HW2 7626   4.219   3.672   2.097 -0.8837 -1.2425 -0.2299
 2603SOL     OW 7627   0.735   0.946   4.810 -0.5552 -0.3436  0.6352
 2603SOL    HW1 7628   0.686   0.917   4.728 -0.2158 -1.9064  0.9578
 2603SOL    HW2 7629   0.831   0.918   4.803  0.0192  1.5156  0.5908
 2604SOL     OW 7630   1.059   0.934   1.276  0.0742 -0.5382 -0.2152
 2604SOL    HW1 7631   1.066   0.836   1.258 -0.2797 -0.8067  0.9917
 2604SOL    HW2 7632   0.972   0.954   1.320  0.1020  0.3384 -0.5448
 2605SOL     OW 7633   4.710   2.090   1.872 -0.2813  0.9204 -0.5260
 2605SOL    HW1 7634   4.793   2.095   1.817  0.5631 -1.7643  0.3487
 2605SOL    HW2 7635   4.630   2.084   1.812  0.3457  1.1431 -1.3979
 2606SOL     OW 7636   3.597   4.883   4.514  0.4645 -0.3480 -0.3408
 2606SOL    HW1 7637   3.672   4.817   4.507  0.8640  0.1348 -0.6821
 2606SOL    HW2 7638   3.605   4.950   4.440 -1.1308 -1.1329 -1.2805
 2607SOL     OW 7639   3.685   0.536   2.957 -0.0297  0.0115  0.3094
 2607SOL    HW1 7640   3.775   0.492   2.955  0.8052  1.6340 -2.1889
 2607SOL    HW2 7641   3.691   0.622   3.007 -0.5353 -0.4132  1.1390
 2608SOL     OW 7642   4.117   3.224   4.743 -0.1185  0.0922 -0.3812
 2608SOL    HW1 7643   4.111   3.124   4.741 -0.9555  0.1362 -1.7911
 2608SOL    HW2 7644   4.208   3.252   4.772 -0.6411 -1.0275  2.6983
 2609SOL     OW 7645   2.029   0.562   0.931 -0.3450  0.6478 -0.4812
 2609SOL    HW1 7646   2.040   0.662   0.927 -0.2180  0.6015 -1.5699
 2609SOL    HW2 7647   2.081   0.526   1.009  1.1120  1.2550 -1.1351
 2610SOL     OW 7648   3.624   0.750   2.050 -0.0119  0.0961 -0.2156
 2610SOL    HW1 7649   3.525   0.757   2.037 -0.5828 -4.0151  0.5426
 2610SOL    HW2 7650   3.669   0.747   1.961 -0.5463  1.5908 -0.5720
 2611SOL     OW 7651   4.146   0.234   0.533 -0.5205 -0.1638 -0.2888
 2611SOL    HW1 7652   4.155   0.328   0.565 -1.2542  0.0566 -0.6949
 2611SOL    HW2 7653   4.161   0.171   0.610  1.3678  0.2143 -0.3093
 2612SOL     OW 7654   2.495   4.099   3.370  0.2347 -0.1784  0.1319
 2612SOL    HW1 7655   2.463   4.171   3.431  1.1442 -0.4365  0.9440
 2612SOL    HW2 7656   2.419   4.041   3.343 -0.4581  0.8996 -0.2845
 2613SOL     OW 7657   2.376   3.743   2.623 -0.6788  0.5208  0.0868
 2613SOL    HW1 7658   2.321   3.824   2.644  2.2129  2.5106  0.5935
 2613SOL    HW2 7659   2.457   3.742   2.681 -0.7377 -2.9883  0.3010
 2614SOL     OW 7660   2.850   1.041   3.241  0.1650 -0.0562  0.2935
 2614SOL    HW1 7661   2.805   1.092   3.167 -1.1386  1.4725  2.0183
 2614SOL    HW2 7662   2.787   1.034   3.319  1.2707 -2.1247  1.0693
 2615SOL     OW 7663   4.248   1.652   0.072 -0.1857 -0.1218 -0.7811
 2615SOL    HW1 7664   4.152   1.635   0.048 -0.4564 -0.0458  0.2197
 2615SOL    HW2 7665   4.261   1.748   0.094 -0.3383 -0.4920  1.0564
 2616SOL     OW 7666   4.166   2.303   0.022  0.2000  0.0628 -0.1810
 2616SOL    HW1 7667   4.113   2.297   0.107  1.2268  1.3938  0.6008
 2616SOL    HW2 7668   4.113   2.350  -0.048  0.7588  2.6243  1.0121
 2617SOL     OW 7669   2.253   4.311   3.257  0.5662  0.6614  0.1756
 2617SOL    HW1 7670   2.321   4.322   3.185  0.9734  1.4624  0.6654
 2617SOL    HW2 7671   2.262   4.221   3.299  1.2532  0.7210  0.1626
 2618SOL     OW 7672   0.228   2.875   2.785  0.0630 -0.3923 -0.1581
 2618SOL    HW1 7673   0.240   2.818   2.866 -1.0289  0.7341  0.8237
 2618SOL    HW2 7674   0.248   2.970   2.807  0.8146 -0.2077 -1.5011
 2619SOL     OW 7675   4.109   0.910   3.327  0.6548  0.2847  0.3712
 2619SOL    HW1 7676   4.167   0.963   3.264  1.0495  0.0661  0.5451
 2619SOL    HW2 7677   4.158   0.828   3.355 -0.6875 -1.1959 -1.4174
 2620SOL     OW 7678   0.329   0.533   1.730 -0.1389  0.0742  0.4399
 2620SOL    HW1 7679   0.383   0.492   1.803 -0.1454 -0.3825  0.1886
 2620SOL    HW2 7680   0.235   0.547   1.762  0.1471  0.9730  0.9148
 2621SOL     OW 7681   1.146   2.643   4.618  0.5701  0.3228 -0.0637
 2621SOL    HW1 7682   1.245   2.630   4.624  0.6601  1.2801  1.0398
 2621SOL    HW2 7683   1.127   2.739   4.597 -0.1344  0.4572  1.1155
 2622SOL     OW 7684   1.903   1.612   1.563  0.6618  0.7867 -0.4512
 2622SOL    HW1 7685   1.837   1.611   1.487 -0.4625  2.7001  0.4275
 2622SOL    HW2 7686   1.880   1.540   1.628 -0.6824  1.4654 -0.1227
 2623SOL     OW 7687   4.787   0.245   4.855 -0.4316 -0.3781  0.4837
 2623SOL    HW1 7688   4.718   0.312   4.882 -0.1351  0.2180 -0.1895
 2623SOL    HW2 7689   4.836   0.214   4.936 -1.0153 -0.2806  0.8836
 2624SOL     OW 7690   4.208   4.975   0.399  0.0961 -0.1034  0.0337
 2624SOL    HW1 7691   4.124   5.011   0.440  0.0492  1.0427 -1.0397
 2624SOL    HW2 7692   4.256   5.048   0.350  0.3634 -1.3326 -1.6216
 2625SOL     OW 7693   2.368   1.497   4.239 -0.4790  0.0147  0.2921
 2625SOL    HW1 7694   2.290   1.559   4.242  0.5999  1.4347  3.0907
 2625SOL    HW2 7695   2.433   1.529   4.170 -1.0192  0.5860  0.0316
 2626SOL     OW 7696   3.631   3.705   3.696 -0.2887 -0.4005  0.0619
 2626SOL    HW1 7697   3.609   3.650   3.616  0.3834 -0.6881  0.0763
 2626SOL    HW2 7698   3.586   3.794   3.688 -1.9639 -1.1661  0.3670
 2627SOL     OW 7699   0.928   0.681   4.586  0.1499  0.1474 -0.1779
 2627SOL    HW1 7700   0.976   0.601   4.622 -0.5128 -0.2608 -0.1819
 2627SOL    HW2 7701   0.951   0.694   4.490  2.1406  1.3984  0.4212
 2628SOL     OW 7702   3.232   0.531   0.194 -0.0279 -0.0328  0.0310
 2628SOL    HW1 7703   3.272   0.530   0.286 -1.9756  0.6400  0.9329
 2628SOL    HW2 7704   3.184   0.617   0.179 -1.5210 -0.9559 -0.8111
 2629SOL     OW 7705   4.434   3.377   2.541 -0.0339  0.1190  0.6169
 2629SOL    HW1 7706   4.349   3.336   2.573 -0.1786  0.4637  0.6778
 2629SOL    HW2 7707   4.414   3.459   2.487  0.2919  0.8246  1.5377
 2630SOL     OW 7708   4.683   1.007   4.367  0.0721  0.6743  0.4064
 2630SOL    HW1 7709   4.707   1.077   4.433 -1.1639  0.9384  0.5914
 2630SOL    HW2 7710   4.661   0.922   4.415  1.8577  0.0342  0.1703
 2631SOL     OW 7711   3.380   5.032   3.281  0.6738 -0.0858 -0.0596
 2631SOL    HW1 7712   3.302   5.091   3.302 -1.2114 -2.6440  0.6673
 2631SOL    HW2 7713   3.456   5.055   3.341 -0.7993  0.1150  1.8230
 2632SOL     OW 7714   2.437   2.335   1.235  0.3641  0.6735 -0.1623
 2632SOL    HW1 7715   2.353   2.299   1.194  1.2677 -0.7743 -0.8053
 2632SOL    HW2 7716   2.429   2.435   1.244 -1.4777  0.5587 -0.0332
 2633SOL     OW 7717   2.884   3.229   0.262 -0.2997 -0.0924 -0.4651
 2633SOL    HW1 7718   2.936   3.285   0.326 -0.0687  1.1229 -1.6742
 2633SOL    HW2 7719   2.946   3.168   0.213 -0.4878 -1.0871  0.4870
 2634SOL     OW 7720   3.115   0.018   5.025  0.1619 -0.1206 -0.1848
 2634SOL    HW1 7721   3.038   0.076   4.997  1.1401  1.3716  0.0567
 2634SOL    HW2 7722   3.109  -0.070   4.979 -1.1551  0.3308 -0.9360
 2635SOL     OW 7723   3.873   1.059   1.918 -0.2385 -0.4957 -0.4625
 2635SOL    HW1 7724   3.946   1.025   1.859 -1.0825 -1.9083 -0.7254
 2635SOL    HW2 7725   3.865   1.000   1.998 -2.3401 -1.5505 -1.3752
 2636SOL     OW 7726   3.210   2.588   1.160  0.0168  0.1990 -0.0241
 2636SOL    HW1 7727   3.295   2.633   1.188 -0.1804  0.0214  0.9139
 2636SOL    HW2 7728   3.153   2.652   1.110  0.5927  0.3938 -0.4418
 2637SOL     OW 7729   4.018   3.122   2.881 -0.4091  0.5407  0.1101
 2637SOL    HW1 7730   3.931   3.103   2.835  0.0669 -0.4528 -0.3950
 2637SOL    HW2 7731   4.087   3.056   2.852  0.7153  1.7214 -0.0128
 2638SOL     OW 7732   1.838   2.898   4.039  0.5746 -0.1551 -0.2589
 2638SOL    HW1 7733   1.870   2.872   3.948  1.3046  0.2512 -0.1261
 2638SOL    HW2 7734   1.744   2.931   4.033  0.8821  0.6247 -1.0002
 2639SOL     OW 7735   1.865   2.713   4.650  0.3070  0.1939 -0.1378
 2639SOL    HW1 7736   1.930   2.647   4.686 -0.1247 -0.5273 -0.6534
 2639SOL    HW2 7737   1.812   2.753   4.725  1.6899  1.1885  0.3472
 2640SOL     OW 7738   4.702   0.858   4.719 -0.5911  0.5270  0.1741
 2640SOL    HW1 7739   4.679   0.945   4.676 -1.5647  1.3754  2.2688
 2640SOL    HW2 7740   4.632   0.834   4.787 -0.4652 -2.0187 -0.4849
 2641SOL     OW 7741   2.778   1.882   2.671 -0.3582  0.0374 -0.0432
 2641SOL    HW1 7742   2.788   1.981   2.658  2.2764 -0.2772 -0.9136
 2641SOL    HW2 7743   2.830   1.853   2.750 -0.6681 -0.7482 -0.1189
 2642SOL     OW 7744   3.051   3.423   4.152 -0.0534 -0.4276 -0.2694
 2642SOL    HW1 7745   2.952   3.436   4.160 -0.0070 -0.3378  0.1610
 2642SOL    HW2 7746   3.083   3.464   4.067 -0.3555 -0.2755 -0.3113
 2643SOL     OW 7747   3.344   3.778   4.112  0.1079  0.0008 -0.2304
 2643SOL    HW1 7748   3.283   3.747   4.184  0.3202  1.2668  0.5056
 2643SOL    HW2 7749   3.380   3.698   4.063  0.0003 -0.8837  1.0803
 2644SOL     OW 7750   0.221   2.816   1.718  0.4984  0.6490 -0.4669
 2644SOL    HW1 7751   0.262   2.782   1.634  1.1653 -0.4601  0.2842
 2644SOL    HW2 7752   0.130   2.852   1.699 -0.1171 -1.2708 -1.3797
 2645SOL     OW 7753   0.129   2.287   3.634 -0.5416 -0.3259  0.1817
 2645SOL    HW1 7754   0.213   2.231   3.629 -1.1281 -1.1038 -2.8246
 2645SOL    HW2 7755   0.057   2.234   3.680 -0.0851 -0.6137  0.5794
 2646SOL     OW 7756   1.463   0.421   1.336 -0.5425 -0.4376 -0.0863
 2646SOL    HW1 7757   1.410   0.417   1.252  1.6444 -1.1316 -1.5165
 2646SOL    HW2 7758   1.476   0.329   1.372 -1.6471 -0.1279  1.1881
 2647SOL     OW 7759   1.603   0.915   0.704 -0.2067 -0.2620 -0.3110
 2647SOL    HW1 7760   1.683   0.918   0.765 -0.4657 -1.2767  0.0942
 2647SOL    HW2 7761   1.633   0.927   0.609  0.6018 -1.8292 -0.2895
 2648SOL     OW 7762   4.719   2.269   3.269 -0.1241 -0.1694 -0.0313
 2648SOL    HW1 7763   4.810   2.236   3.244  0.3101  0.5465  0.5504
 2648SOL    HW2 7764   4.673   2.200   3.324  0.4204 -0.1830  0.4180
 2649SOL     OW 7765   1.852   4.059   3.626 -0.1578  0.3188 -0.4267
 2649SOL    HW1 7766   1.802   3.972   3.630  1.4598 -0.6183  0.7130
 2649SOL    HW2 7767   1.790   4.134   3.648 -1.2436 -0.7081  0.1387
 2650SOL     OW 7768   1.268   1.346   4.325 -0.1952  0.1510 -0.0454
 2650SOL    HW1 7769   1.222   1.333   4.238 -2.1255 -0.1425  0.9709
 2650SOL    HW2 7770   1.322   1.265   4.348 -0.6459 -0.2455 -0.3935
 2651SOL     OW 7771   2.481   1.396   2.447  0.1670 -0.1208 -0.1743
 2651SOL    HW1 7772   2.413   1.340   2.496  0.2970  0.7725  1.0759
 2651SOL    HW2 7773   2.552   1.425   2.512  2.4953 -2.0786 -1.6693
 2652SOL     OW 7774   0.422   1.722   3.633  0.2223  0.4688  0.1982
 2652SOL    HW1 7775   0.329   1.686   3.634  0.6340 -0.6824 -0.2627
 2652SOL    HW2 7776   0.421   1.816   3.600 -0.5723 -0.2542 -2.0336
 2653SOL     OW 7777   3.932   3.006   2.171  0.0731  0.2576  0.3378
 2653SOL    HW1 7778   3.881   3.075   2.224 -1.0830 -0.5121  0.2603
 2653SOL    HW2 7779   4.017   3.046   2.139  1.0789  0.6439  3.1520
 2654SOL     OW 7780   2.571   0.971   0.467  0.0388  0.2737  0.1004
 2654SOL    HW1 7781   2.610   0.991   0.557  0.2546 -0.5277  0.1948
 2654SOL    HW2 7782   2.645   0.946   0.404 -0.2263 -0.3152  0.0183
 2655SOL     OW 7783   1.390   4.910   3.570  0.2838 -0.0679  0.4249
 2655SOL    HW1 7784   1.472   4.894   3.516  0.5034 -2.4485  1.3202
 2655SOL    HW2 7785   1.402   4.992   3.625  2.2869 -0.5895  0.8603
 2656SOL     OW 7786   1.915   4.787   3.984 -0.1880  0.0740 -0.1603
 2656SOL    HW1 7787   1.896   4.854   4.055  0.9199 -0.2165  0.4335
 2656SOL    HW2 7788   1.870   4.701   4.007  1.3806 -0.4779  1.0077
 2657SOL     OW 7789   4.804   3.834   1.590  0.4544  0.5066  0.0056
 2657SOL    HW1 7790   4.900   3.859   1.584  0.4838  0.3371 -0.2866
 2657SOL    HW2 7791   4.795   3.734   1.586  0.1512  0.5652 -2.0527
 2658SOL     OW 7792   3.977   0.156   1.500 -0.1347  0.2338  0.3181
 2658SOL    HW1 7793   4.029   0.103   1.433 -1.4507 -1.0364  0.2559
 2658SOL    HW2 7794   3.931   0.094   1.563 -1.8398  1.2962  0.1711
 2659SOL     OW 7795   0.617   4.268   1.304  0.2996 -0.0648  0.5557
 2659SOL    HW1 7796   0.674   4.192   1.275  1.5634  1.7021 -1.9975
 2659SOL    HW2 7797   0.616   4.338   1.232 -3.1414  1.0877  1.5471
 2660SOL     OW 7798   5.024   2.996   1.126  0.0958  0.0681  0.2484
 2660SOL    HW1 7799   5.111   2.953   1.148  0.2315  0.2703  0.1158
 2660SOL    HW2 7800   5.037   3.061   1.051  0.0663  0.9367  0.9722
 2661SOL     OW 7801   0.192   3.840   3.361 -0.2501 -0.4045  0.2659
 2661SOL    HW1 7802   0.153   3.884   3.280  1.3021  0.3260 -0.1306
 2661SOL    HW2 7803   0.137   3.761   3.386 -2.2154  0.8192  0.0363
 2662SOL     OW 7804   4.815   3.698   4.278 -0.2634  0.4794 -0.3242
 2662SOL    HW1 7805   4.898   3.641   4.284 -0.6157  0.0193  0.2975
 2662SOL    HW2 7806   4.810   3.757   4.359  0.2123  1.5739 -1.0680
 2663SOL     OW 7807   3.633   2.289   2.910  0.5264  0.1938 -0.5593
 2663SOL    HW1 7808   3.660   2.375   2.953 -0.8025  0.3458  0.0221
 2663SOL    HW2 7809   3.543   2.262   2.944  0.0116 -0.3534 -2.2751
 2664SOL     OW 7810   4.044   1.895   4.107 -0.1406  0.8617 -0.5107
 2664SOL    HW1 7811   4.119   1.883   4.043  1.4589  1.3635  1.1777
 2664SOL    HW2 7812   4.078   1.936   4.192 -1.8390 -1.1173  1.2746
 2665SOL     OW 7813   2.155   0.602   4.104 -0.4311 -0.3612  0.4085
 2665SOL    HW1 7814   2.059   0.577   4.099 -0.4625 -0.5243  1.4930
 2665SOL    HW2 7815   2.179   0.661   4.027 -1.5529  0.2319  0.4996
 2666SOL     OW 7816   3.815   0.623   2.215  0.9049 -0.6500  0.2035
 2666SOL    HW1 7817   3.746   0.646   2.147  0.0697 -2.7505  0.2388
 2666SOL    HW2 7818   3.809   0.687   2.292 -1.1903 -0.8815  0.2992
 2667SOL     OW 7819   0.253   3.636   1.038  0.1240 -0.7165  0.3289
 2667SOL    HW1 7820   0.241   3.681   1.126  0.4198 -1.3868  0.7127
 2667SOL    HW2 7821   0.180   3.665   0.976 -0.2514 -0.4704  0.8791
 2668SOL     OW 7822   2.181   2.804   4.213  0.3759 -0.0075 -0.5820
 2668SOL    HW1 7823   2.115   2.785   4.141  1.1398 -1.3057 -0.9647
 2668SOL    HW2 7824   2.220   2.718   4.247 -0.3120  0.5101  1.7447
 2669SOL     OW 7825   1.054   2.123   3.680  0.1856  0.2775 -0.3964
 2669SOL    HW1 7826   1.047   2.142   3.582  0.5482  1.9391 -0.1331
 2669SOL    HW2 7827   0.962   2.107   3.717 -0.0543  0.5563 -0.8541
 2670SOL     OW 7828   3.236   4.350   2.701  0.4470  0.3165 -0.0473
 2670SOL    HW1 7829   3.157   4.293   2.680  1.5102 -0.9984 -0.7047
 2670SOL    HW2 7830   3.215   4.446   2.681 -2.2424  0.6296  3.4091
 2671SOL     OW 7831   0.196   3.432   4.795 -0.4371 -0.5485  0.4115
 2671SOL    HW1 7832   0.122   3.476   4.745  0.2305  0.2901  0.1379
 2671SOL    HW2 7833   0.166   3.343   4.827 -1.4459 -0.3679  0.0033
 2672SOL     OW 7834   1.472   4.786   1.141 -0.7435 -0.5810 -0.2076
 2672SOL    HW1 7835   1.423   4.719   1.085 -1.0841  0.6785 -1.4735
 2672SOL    HW2 7836   1.409   4.858   1.170 -0.2484 -0.4568  0.5887
 2673SOL     OW 7837   2.946   3.374   3.514  0.1940  0.2182  0.2394
 2673SOL    HW1 7838   2.884   3.356   3.437 -0.2236 -0.3016  0.6922
 2673SOL    HW2 7839   2.898   3.427   3.583  0.0211 -0.7826  0.9059
 2674SOL     OW 7840   0.046   3.083   3.351  0.0261  0.3504  0.0072
 2674SOL    HW1 7841   0.038   3.162   3.291 -1.1239 -0.0532 -0.3976
 2674SOL    HW2 7842   0.076   3.004   3.298 -0.7939  0.0412 -0.0068
 2675SOL     OW 7843   1.423   3.117   4.709  0.5318  0.1324  0.3188
 2675SOL    HW1 7844   1.496   3.093   4.772 -0.0428 -0.0553  0.9263
 2675SOL    HW2 7845   1.432   3.213   4.682 -0.3124  0.7963  2.2215
 2676SOL     OW 7846   2.484   1.645   2.345 -0.1029 -0.0832  0.3157
 2676SOL    HW1 7847   2.471   1.559   2.395  0.1728 -0.1781  0.2272
 2676SOL    HW2 7848   2.579   1.673   2.352  0.2852 -0.8677 -1.3767
 2677SOL     OW 7849   1.969   3.091   4.657  0.6026 -0.0067 -0.0035
 2677SOL    HW1 7850   2.030   3.026   4.702 -1.3470 -1.9899 -0.0119
 2677SOL    HW2 7851   1.979   3.083   4.558  0.0819 -0.6395 -0.0142
 2678SOL     OW 7852   2.629   3.885   4.401  0.9326  0.2918  0.2037
 2678SOL    HW1 7853   2.670   3.794   4.408 -3.1951 -1.8964 -0.6410
 2678SOL    HW2 7854   2.582   3.907   4.487  0.2455  0.6937 -0.2667
 2679SOL     OW 7855   1.626   3.421   1.731 -0.1993 -0.3942 -0.5833
 2679SOL    HW1 7856   1.585   3.340   1.771  1.0964 -2.5550 -3.2889
 2679SOL    HW2 7857   1.682   3.468   1.799 -0.1657 -2.3425  0.7953
 2680SOL     OW 7858   4.069   0.804   2.493 -0.3919  0.1269 -0.2366
 2680SOL    HW1 7859   3.981   0.758   2.479 -2.0055  2.5868  1.1910
 2680SOL    HW2 7860   4.113   0.766   2.574 -0.4528 -0.6224 -0.5401
 2681SOL     OW 7861   1.161   0.441   0.486 -0.2851  0.2242  0.2034
 2681SOL    HW1 7862   1.198   0.391   0.564 -0.1300 -0.6153 -0.3847
 2681SOL    HW2 7863   1.186   0.392   0.401 -0.7867  0.8965 -0.3380
 2682SOL     OW 7864   1.426   3.826   0.729  0.3881 -0.1715  0.4164
 2682SOL    HW1 7865   1.486   3.747   0.720  0.8363  0.3754 -1.7711
 2682SOL    HW2 7866   1.466   3.890   0.794  0.8356 -0.9710  0.9593
 2683SOL     OW 7867   1.953   0.527   4.424 -0.0604 -0.0028 -0.3191
 2683SOL    HW1 7868   2.023   0.572   4.368  0.0259  0.2131 -0.0405
 2683SOL    HW2 7869   1.934   0.584   4.505 -0.6513  0.0029 -0.4610
 2684SOL     OW 7870   3.071   1.590   2.898  0.1151 -0.6291  0.4540
 2684SOL    HW1 7871   3.043   1.619   2.806 -1.6041  0.4771  1.2741
 2684SOL    HW2 7872   3.071   1.669   2.959 -3.0129 -1.9518  2.3811
 2685SOL     OW 7873   4.260   4.388   1.009  0.1462  0.3589  1.1876
 2685SOL    HW1 7874   4.270   4.291   1.031  0.6694  0.5208  1.7138
 2685SOL    HW2 7875   4.298   4.443   1.084  2.0780  0.9427 -0.1264
 2686SOL     OW 7876   2.829   4.801   3.095  0.3687  0.6586  0.3925
 2686SOL    HW1 7877   2.798   4.735   3.163  1.2364 -0.2283 -0.0443
 2686SOL    HW2 7878   2.764   4.802   3.019  0.3215  0.3330  0.4250
 2687SOL     OW 7879   0.323   2.899   3.508  0.5129  0.5491  0.3521
 2687SOL    HW1 7880   0.268   2.900   3.591  0.9199 -2.4971  0.7693
 2687SOL    HW2 7881   0.386   2.822   3.510 -0.9682 -1.0922 -3.7028
 2688SOL     OW 7882   3.741   4.611   4.990  0.2407 -0.2781 -0.0747
 2688SOL    HW1 7883   3.815   4.632   5.054  1.0857 -0.6942 -0.9021
 2688SOL    HW2 7884   3.720   4.693   4.937 -1.1493  0.3707  1.3675
 2689SOL     OW 7885   4.346   4.379   2.475  0.1621  0.2433 -0.4976
 2689SOL    HW1 7886   4.289   4.299   2.460 -0.5379  0.5288  0.5285
 2689SOL    HW2 7887   4.295   4.462   2.449  1.3294  0.3340 -2.8110
 2690SOL     OW 7888   4.838   3.836   4.524 -0.5179 -0.0761  0.2420
 2690SOL    HW1 7889   4.840   3.934   4.506 -2.5228 -0.0362  0.0445
 2690SOL    HW2 7890   4.926   3.808   4.563 -0.0604  1.8647  0.7264
 2691SOL     OW 7891   0.701   4.417   1.828  0.4066  0.2036  0.0934
 2691SOL    HW1 7892   0.682   4.507   1.789  2.0012  0.6095  0.1940
 2691SOL    HW2 7893   0.640   4.349   1.786 -0.1810  1.1674 -0.6537
 2692SOL     OW 7894   0.545   1.677   2.924  0.2761 -0.4210  0.0911
 2692SOL    HW1 7895   0.456   1.651   2.963  0.3419 -2.1760 -0.8387
 2692SOL    HW2 7896   0.576   1.762   2.967 -1.7654  0.1606  0.5459
 2693SOL     OW 7897   0.078   1.109   1.267 -0.2136 -0.4000 -0.1226
 2693SOL    HW1 7898  -0.010   1.128   1.311 -0.5292  0.5099 -1.1173
 2693SOL    HW2 7899   0.138   1.189   1.275  0.4953 -0.9660  0.4377
 2694SOL     OW 7900   3.649   2.757   0.336  0.1030  0.2850 -0.3689
 2694SOL    HW1 7901   3.567   2.733   0.389 -0.7881  1.1447 -1.3172
 2694SOL    HW2 7902   3.679   2.849   0.361 -0.7356  0.9771 -1.8174
 2695SOL     OW 7903   2.495   2.694   3.855 -0.0653  0.0065 -0.2887
 2695SOL    HW1 7904   2.529   2.645   3.776  0.5196 -0.2726  0.1293
 2695SOL    HW2 7905   2.523   2.790   3.851  0.6786 -0.1942 -0.0090
 2696SOL     OW 7906   3.959   2.739   2.281 -0.3079 -0.3443 -0.6181
 2696SOL    HW1 7907   3.935   2.834   2.264  0.7069 -0.2103 -1.4358
 2696SOL    HW2 7908   4.059   2.729   2.276 -0.0594 -0.8319  2.6717
 2697SOL     OW 7909   3.546   4.290   3.920  0.0866  0.7780  0.0509
 2697SOL    HW1 7910   3.615   4.222   3.896 -1.0257  0.2988 -2.0239
 2697SOL    HW2 7911   3.590   4.367   3.967  1.6173 -0.5796  0.9602
 2698SOL     OW 7912   3.669   1.798   0.737 -0.0597 -0.3310 -0.2397
 2698SOL    HW1 7913   3.762   1.769   0.715 -0.8056 -1.6949 -1.7848
 2698SOL    HW2 7914   3.629   1.845   0.659 -0.4728  0.8091  0.6366
 2699SOL     OW 7915   0.442   2.210   0.118  0.3646 -0.0797 -0.8328
 2699SOL    HW1 7916   0.492   2.279   0.066 -0.0823  1.8586  1.1454
 2699SOL    HW2 7917   0.495   2.125   0.120  2.1311  0.9562 -1.3404
 2700SOL     OW 7918   2.416   4.232   0.136  0.3755  0.1453 -0.4449
 2700SOL    HW1 7919   2.495   4.291   0.121  0.3794  0.6233  1.2389
 2700SOL    HW2 7920   2.440   4.157   0.197 -0.3051 -0.0379 -0.3867
 2701SOL     OW 7921   3.052   0.052   1.164 -0.3323  0.2701  0.2951
 2701SOL    HW1 7922   3.129   0.116   1.155  0.5688 -0.8299 -0.0215
 2701SOL    HW2 7923   3.080  -0.039   1.133 -1.6244 -0.2693  0.6383
 2702SOL     OW 7924   3.669   2.493   0.877 -0.2058 -0.1621 -0.6652
 2702SOL    HW1 7925   3.584   2.494   0.929 -1.4273 -0.1218 -2.5280
 2702SOL    HW2 7926   3.704   2.587   0.869  0.9753 -0.3675  1.4982
 2703SOL     OW 7927   4.396   0.669   4.140  0.4885 -0.0624 -0.4997
 2703SOL    HW1 7928   4.473   0.730   4.120 -0.8291  1.3878 -1.3774
 2703SOL    HW2 7929   4.374   0.616   4.058 -0.5176  0.8022 -0.8105
 2704SOL     OW 7930   3.342   3.247   1.532  0.5851 -0.0527  0.1759
 2704SOL    HW1 7931   3.282   3.312   1.485 -0.1107 -0.1034  0.9860
 2704SOL    HW2 7932   3.349   3.163   1.477 -0.8134 -0.3986  0.4945
 2705SOL     OW 7933   1.532   3.227   1.124  0.0509 -0.6408 -0.2060
 2705SOL    HW1 7934   1.500   3.215   1.031  0.0296  1.4778 -0.5207
 2705SOL    HW2 7935   1.543   3.138   1.168 -1.0703 -1.6176 -1.8297
 2706SOL     OW 7936   3.166   2.593   4.669 -0.6984  0.9869 -0.1737
 2706SOL    HW1 7937   3.220   2.638   4.598 -1.2826 -0.0458 -1.3123
 2706SOL    HW2 7938   3.228   2.547   4.734 -0.1805  0.3016 -1.1300
 2707SOL     OW 7939   0.716   3.385   2.749 -0.0582  0.1821  0.1133
 2707SOL    HW1 7940   0.738   3.400   2.845 -0.7369 -1.0813  0.4909
 2707SOL    HW2 7941   0.737   3.290   2.725  2.6757  1.1324 -1.7326
 2708SOL     OW 7942   1.867   3.775   0.029  0.9764 -0.6057 -0.4214
 2708SOL    HW1 7943   1.778   3.731   0.037 -0.5079  2.2390 -0.1026
 2708SOL    HW2 7944   1.925   3.748   0.106 -0.7284 -0.1810  1.0768
 2709SOL     OW 7945   2.955   1.985   2.282  0.0184 -0.2454 -0.0210
 2709SOL    HW1 7946   3.001   1.905   2.321  0.9491  0.7601  1.0082
 2709SOL    HW2 7947   2.959   1.980   2.182  0.6351 -1.1698  0.0410
 2710SOL     OW 7948   1.921   0.474   0.593 -0.1495  0.1106 -0.0346
 2710SOL    HW1 7949   1.856   0.520   0.532 -0.0626  0.3950  0.0877
 2710SOL    HW2 7950   2.011   0.515   0.582  0.8907 -2.4435 -2.7722
 2711SOL     OW 7951   4.764   1.595   1.032 -0.3364  0.3057 -0.6371
 2711SOL    HW1 7952   4.726   1.510   1.068 -0.1140  0.8918  1.0834
 2711SOL    HW2 7953   4.833   1.575   0.962  0.7732 -0.9883  0.7883
 2712SOL     OW 7954   4.529   0.144   3.648  0.4962  0.4109  0.0596
 2712SOL    HW1 7955   4.622   0.178   3.659  0.9022 -0.7859  0.4744
 2712SOL    HW2 7956   4.504   0.144   3.551  0.5215  1.7457  0.0430
 2713SOL     OW 7957   4.187   0.081   0.733  0.2992  0.2456 -0.2041
 2713SOL    HW1 7958   4.101   0.041   0.766  0.6846 -1.3516 -1.0419
 2713SOL    HW2 7959   4.262   0.017   0.749  0.3759 -1.2850 -5.0968
 2714SOL     OW 7960   3.290   4.351   1.782 -0.3553  0.3185  0.0213
 2714SOL    HW1 7961   3.254   4.347   1.875 -0.1737  2.2613  0.2164
 2714SOL    HW2 7962   3.345   4.269   1.764  2.6963  1.4500  2.9873
 2715SOL     OW 7963   4.848   1.181   2.870 -0.2380 -0.6235  0.2042
 2715SOL    HW1 7964   4.943   1.180   2.837 -0.4030 -1.2459 -0.2795
 2715SOL    HW2 7965   4.845   1.155   2.966 -0.0723 -2.5412 -0.2660
 2716SOL     OW 7966   2.140   1.053   2.656 -0.4985 -0.2728 -0.1018
 2716SOL    HW1 7967   2.042   1.035   2.646 -1.0200  2.1006  0.1748
 2716SOL    HW2 7968   2.156   1.111   2.736  1.0364 -0.0364 -0.5406
 2717SOL     OW 7969   1.943   4.655   3.274 -0.0212  0.3625  0.4966
 2717SOL    HW1 7970   1.965   4.571   3.323  2.8673  1.7092  1.7113
 2717SOL    HW2 7971   1.965   4.644   3.177  1.4484  0.0428  0.8479
 2718SOL     OW 7972   0.429   0.420   0.435  0.2006 -0.0182 -0.5434
 2718SOL    HW1 7973   0.456   0.415   0.531  2.0068 -0.6931 -1.0501
 2718SOL    HW2 7974   0.505   0.391   0.377  0.4250  3.7041 -2.4014
 2719SOL     OW 7975   0.733   2.935   3.928  0.0777  0.1178  0.0042
 2719SOL    HW1 7976   0.683   2.905   3.847 -2.1422 -3.3181  2.3784
 2719SOL    HW2 7977   0.820   2.885   3.934  0.7657  1.1710 -0.6952
 2720SOL     OW 7978   5.003   4.411   0.911 -0.3590 -1.0279  0.0611
 2720SOL    HW1 7979   5.037   4.441   1.000 -2.3584  1.3368  0.1558
 2720SOL    HW2 7980   5.079   4.405   0.846  0.9669 -1.6776  1.6338
 2721SOL     OW 7981   4.431   2.809   4.180 -0.4291  0.8084  0.2365
 2721SOL    HW1 7982   4.366   2.779   4.111 -2.2824  3.8170  0.5065
 2721SOL    HW2 7983   4.517   2.835   4.136 -0.7785  0.5248 -0.6351
 2722SOL     OW 7984   3.194   2.009   4.777  0.5117  0.2256  0.4725
 2722SOL    HW1 7985   3.188   1.979   4.872  1.0985  1.2142  0.8430
 2722SOL    HW2 7986   3.235   2.101   4.773  0.2292  0.3281 -0.7121
 2723SOL     OW 7987   2.013   3.897   0.422  0.7107  0.1411 -0.0892
 2723SOL    HW1 7988   1.942   3.855   0.478 -0.0915  0.9735 -0.4587
 2723SOL    HW2 7989   2.025   3.845   0.338 -2.1216  1.9439 -1.7933
 2724SOL     OW 7990   4.591   3.534   4.308 -0.5772  0.0170  0.7631
 2724SOL    HW1 7991   4.656   3.605   4.284 -0.3118 -0.4036  0.2219
 2724SOL    HW2 7992   4.639   3.456   4.348 -0.7066 -0.4014  0.1254
 2725SOL     OW 7993   2.281   4.961   3.548  0.0602 -0.4372 -0.0619
 2725SOL    HW1 7994   2.239   5.045   3.583  0.0806 -1.3823  2.4615
 2725SOL    HW2 7995   2.213   4.907   3.498 -0.5116  0.1141  0.1157
 2726SOL     OW 7996   1.541   4.157   1.054  0.3113  0.0845 -0.0826
 2726SOL    HW1 7997   1.546   4.078   0.993 -1.3173  1.6004 -2.3727
 2726SOL    HW2 7998   1.590   4.234   1.013  0.5929  0.7160  1.3596
 2727SOL     OW 7999   2.842   1.299   4.220  0.2248 -0.4649  0.1383
 2727SOL    HW1 8000   2.805   1.214   4.257 -1.3304  0.3782  0.5943
 2727SOL    HW2 8001   2.830   1.299   4.120 -0.4748 -0.4629  0.2175
 2728SOL     OW 8002   3.514   1.298   1.381  0.1898 -0.0750 -0.3656
 2728SOL    HW1 8003   3.473   1.387   1.365  1.5696  0.9264  1.3687
 2728SOL    HW2 8004   3.449   1.239   1.429 -0.2457  0.4786 -0.2697
 2729SOL     OW 8005   3.710   3.878   4.953 -0.0663  0.3377  0.0200
 2729SOL    HW1 8006   3.661   3.870   5.041  1.5536  1.5421  1.0866
 2729SOL    HW2 8007   3.808   3.883   4.970  0.4154 -1.0033 -2.0081
 2730SOL     OW 8008   2.545   3.559   0.841  0.3176  0.4546 -0.7780
 2730SOL    HW1 8009   2.555   3.499   0.921  1.6919 -1.0123 -1.9877
 2730SOL    HW2 8010   2.454   3.548   0.802  0.8182 -1.5644 -1.4801
 2731SOL     OW 8011   4.782   2.643   1.302 -0.1316 -0.5972 -0.1409
 2731SOL    HW1 8012   4.788   2.595   1.215 -2.1598  0.4112 -0.8919
 2731SOL    HW2 8013   4.767   2.578   1.376 -0.6258 -1.2913 -0.8466
 2732SOL     OW 8014   0.363   0.872   3.625 -0.2108  0.5270  0.3987
 2732SOL    HW1 8015   0.428   0.810   3.583 -1.2702 -2.1128  2.3645
 2732SOL    HW2 8016   0.405   0.962   3.636  1.5571  0.1239 -2.1491
 2733SOL     OW 8017   3.766   0.389   3.854  0.1260 -0.2803  0.4207
 2733SOL    HW1 8018   3.744   0.457   3.924  1.0728 -0.3056  0.7600
 2733SOL    HW2 8019   3.839   0.329   3.887 -0.0858 -0.9125 -0.2189
 2734SOL     OW 8020   1.780   2.318   4.890 -0.3214 -0.2647 -0.2340
 2734SOL    HW1 8021   1.745   2.364   4.971 -0.3445  0.0463 -0.4156
 2734SOL    HW2 8022   1.816   2.387   4.826 -2.2978 -0.2730 -1.4584
 2735SOL     OW 8023   0.042   4.906   1.583  0.2622  0.2740  0.8988
 2735SOL    HW1 8024   0.029   4.811   1.554 -0.2654  0.7590 -0.5768
 2735SOL    HW2 8025   0.130   4.915   1.629  0.4708 -0.8652  0.7598
 2736SOL     OW 8026   4.177   3.980   2.623 -0.6138  0.3636 -0.0885
 2736SOL    HW1 8027   4.248   3.956   2.689  0.4422  1.4780 -0.7958
 2736SOL    HW2 8028   4.087   3.972   2.667  0.0330  0.5042  1.3045
 2737SOL     OW 8029   4.525   1.606   1.359  0.2634 -0.7785 -0.5317
 2737SOL    HW1 8030   4.548   1.525   1.413 -0.5034 -1.2706 -0.9205
 2737SOL    HW2 8031   4.589   1.680   1.380  0.3984 -1.1779  0.5376
 2738SOL     OW 8032   3.682   0.521   4.616 -0.1923 -0.7103  0.0504
 2738SOL    HW1 8033   3.635   0.608   4.599  0.4825 -0.1806  0.8369
 2738SOL    HW2 8034   3.720   0.521   4.708  3.2475 -0.2087 -1.2437
 2739SOL     OW 8035   0.813   2.852   1.873  0.3319  0.4375  0.8135
 2739SOL    HW1 8036   0.900   2.869   1.920 -0.1481  0.2009  1.8225
 2739SOL    HW2 8037   0.747   2.922   1.899  0.3853  0.9840 -0.4414
 2740SOL     OW 8038   4.204   2.883   1.299  0.4581  0.2535 -0.3823
 2740SOL    HW1 8039   4.208   2.967   1.245  0.0092  0.7087  0.2838
 2740SOL    HW2 8040   4.212   2.905   1.396  1.7181 -0.6030 -0.2783
 2741SOL     OW 8041   1.679   1.109   2.867 -0.3292 -0.2684  0.0814
 2741SOL    HW1 8042   1.656   1.098   2.964  0.5704  2.8184  0.7604
 2741SOL    HW2 8043   1.595   1.119   2.814 -0.8037 -0.1822  0.8284
 2742SOL     OW 8044   3.019   0.188   2.774  0.6405  0.3644 -0.2000
 2742SOL    HW1 8045   2.976   0.105   2.739 -1.6873  2.8412 -3.9054
 2742SOL    HW2 8046   3.099   0.211   2.719  0.5182  1.2218 -0.0427
 2743SOL     OW 8047   1.138   1.540   2.880 -0.0857  0.1876  0.3740
 2743SOL    HW1 8048   1.087   1.617   2.918 -0.4235  0.7567 -1.1366
 2743SOL    HW2 8049   1.192   1.496   2.952  1.5941  2.9828  0.9452
 2744SOL     OW 8050   0.020   3.634   3.395  0.2447 -0.9883  0.0480
 2744SOL    HW1 8051  -0.061   3.618   3.339 -0.2958  0.2166  0.4588
 2744SOL    HW2 8052   0.079   3.553   3.392 -0.8471 -1.7865 -0.4488
 2745SOL     OW 8053   2.194   0.845   3.670  0.0051  0.2370  0.1594
 2745SOL    HW1 8054   2.209   0.750   3.643 -1.1104  0.1284 -0.1431
 2745SOL    HW2 8055   2.181   0.901   3.589 -1.5367  0.2390  0.3760
 2746SOL     OW 8056   2.695   0.437   4.055  0.0557 -0.1040 -0.0040
 2746SOL    HW1 8057   2.793   0.433   4.072 -0.0263 -0.8900  0.3405
 2746SOL    HW2 8058   2.648   0.473   4.136  0.0503  0.2049 -0.1430
 2747SOL     OW 8059   4.239   2.362   3.471 -0.0048  0.4937 -0.2841
 2747SOL    HW1 8060   4.283   2.365   3.560 -2.8501 -3.1897  1.5008
 2747SOL    HW2 8061   4.283   2.292   3.415 -0.9024 -0.2311 -0.0965
 2748SOL     OW 8062   2.765   2.544   3.469 -0.2176  0.5533  0.4874
 2748SOL    HW1 8063   2.847   2.554   3.525  0.4335  1.0873 -0.5186
 2748SOL    HW2 8064   2.780   2.473   3.400  0.2649  2.1369 -1.1120
 2749SOL     OW 8065   2.971   0.852   4.093  0.4799 -0.0444  0.3411
 2749SOL    HW1 8066   2.915   0.769   4.086 -1.3054  1.0719  0.5150
 2749SOL    HW2 8067   3.037   0.855   4.018  0.9819 -1.8711  0.6589
 2750SOL     OW 8068   0.484   0.565   4.447 -0.1501  0.0977  0.8984
 2750SOL    HW1 8069   0.436   0.592   4.530 -0.7690  0.3464  0.4686
 2750SOL    HW2 8070   0.425   0.504   4.393  0.0589  0.3057  0.4241
 2751SOL     OW 8071   2.199   0.212   2.474  0.6678 -0.2771  0.3634
 2751SOL    HW1 8072   2.192   0.163   2.561  1.1273 -0.9711  0.0196
 2751SOL    HW2 8073   2.196   0.147   2.398  1.0272  0.2437 -0.1130
 2752SOL     OW 8074   0.160   2.423   2.659 -0.2165 -0.3199  0.6529
 2752SOL    HW1 8075   0.086   2.373   2.613 -0.7375 -0.0624  1.2006
 2752SOL    HW2 8076   0.137   2.520   2.664 -0.6682 -0.4786  2.3566
 2753SOL     OW 8077   2.560   2.887   4.717 -0.0965 -0.0498  0.2862
 2753SOL    HW1 8078   2.478   2.887   4.659 -0.1172  0.1370  0.3165
 2753SOL    HW2 8079   2.623   2.958   4.686  1.9779 -2.8088 -2.4414
 2754SOL     OW 8080   1.868   3.447   1.901 -0.9404  0.4501  0.2039
 2754SOL    HW1 8081   1.789   3.449   1.962  0.2490  0.5388  1.7897
 2754SOL    HW2 8082   1.909   3.356   1.903 -0.1447  0.8118  0.5271
 2755SOL     OW 8083   3.204   1.371   0.432  0.4630 -1.0513 -1.3213
 2755SOL    HW1 8084   3.170   1.380   0.339 -1.3091 -0.2933 -0.6591
 2755SOL    HW2 8085   3.242   1.459   0.462 -2.8616  0.0943  0.0177
 2756SOL     OW 8086   1.615   1.492   3.060  0.1112  0.0835 -0.4274
 2756SOL    HW1 8087   1.677   1.434   3.008 -0.5140  0.2774 -1.4199
 2756SOL    HW2 8088   1.555   1.435   3.116  2.2341 -0.0530  1.8249
 2757SOL     OW 8089   1.310   0.633   3.100  0.5719 -0.2823 -0.1003
 2757SOL    HW1 8090   1.333   0.673   3.189 -1.4802  0.0173  0.3529
 2757SOL    HW2 8091   1.377   0.562   3.077  0.1765 -1.6742  2.5760
 2758SOL     OW 8092   1.553   4.536   4.884  0.0211 -0.1486 -0.4530
 2758SOL    HW1 8093   1.563   4.515   4.787  0.5243 -1.2075 -0.1836
 2758SOL    HW2 8094   1.486   4.610   4.895 -0.2910 -0.2421 -1.5699
 2759SOL     OW 8095   3.947   0.244   0.156  0.2356 -0.5677  0.3035
 2759SOL    HW1 8096   3.901   0.251   0.245 -2.0721  1.2206 -0.9237
 2759SOL    HW2 8097   4.027   0.304   0.155 -1.4258  1.7610  0.2876
 2760SOL     OW 8098   4.313   0.752   3.110 -0.5784 -0.0210 -0.3968
 2760SOL    HW1 8099   4.221   0.715   3.116 -0.3335 -0.4583  0.8616
 2760SOL    HW2 8100   4.379   0.677   3.114 -0.1455  0.3348 -0.7489
 2761SOL     OW 8101   1.142   3.155   1.764  0.1121  0.3395 -0.2069
 2761SOL    HW1 8102   1.133   3.058   1.786 -0.5396  0.1788 -1.1330
 2761SOL    HW2 8103   1.230   3.172   1.722 -0.3811 -0.1448 -1.4730
 2762SOL     OW 8104   3.660   0.888   3.372  0.1277 -0.0168  0.8606
 2762SOL    HW1 8105   3.572   0.935   3.363  0.4314  1.0968  3.0450
 2762SOL    HW2 8106   3.731   0.955   3.394  1.9091 -0.6608 -2.3229
 2763SOL     OW 8107   1.111   0.137   3.120 -0.0355  0.0867 -0.0463
 2763SOL    HW1 8108   1.093   0.075   3.043 -0.4646  0.4164 -0.2160
 2763SOL    HW2 8109   1.205   0.170   3.114 -0.6811  1.8654 -1.7483
 2764SOL     OW 8110   2.163   5.015   1.811 -0.0452  0.5467  0.2386
 2764SOL    HW1 8111   2.163   4.937   1.874  0.3534 -0.8089 -1.3634
 2764SOL    HW2 8112   2.175   4.982   1.717  0.2174  2.5608 -0.4850
 2765SOL     OW 8113   3.538   1.468   4.127  0.0802 -0.1440 -0.3463
 2765SOL    HW1 8114   3.586   1.553   4.107  2.5709 -0.8300  2.0487
 2765SOL    HW2 8115   3.469   1.484   4.197  0.3351 -0.0237 -0.1201
 2766SOL     OW 8116   2.834   4.627   3.948  0.3140  0.2410  0.7583
 2766SOL    HW1 8117   2.777   4.703   3.980  1.4914  1.1693  0.7229
 2766SOL    HW2 8118   2.830   4.622   3.848 -0.5858 -0.4182  0.8202
 2767SOL     OW 8119   2.614   3.844   1.770  0.2552  0.1285 -0.1442
 2767SOL    HW1 8120   2.691   3.820   1.710  1.1068  0.1102  0.9220
 2767SOL    HW2 8121   2.630   3.934   1.811 -1.3028  1.0802 -1.4958
 2768SOL     OW 8122   4.258   1.760   2.596  0.2751  0.0472 -0.1988
 2768SOL    HW1 8123   4.337   1.735   2.540  0.5269  1.2063 -0.3925
 2768SOL    HW2 8124   4.279   1.843   2.649 -0.0078 -0.9161  1.5040
 2769SOL     OW 8125   2.565   3.449   1.923  0.6254 -0.3876 -0.7010
 2769SOL    HW1 8126   2.539   3.424   2.017  1.1446 -1.6867 -0.8713
 2769SOL    HW2 8127   2.583   3.547   1.918 -0.9459 -0.0157  0.1820
 2770SOL     OW 8128   3.115   4.339   0.294 -0.2288  1.1479 -0.6642
 2770SOL    HW1 8129   3.105   4.262   0.358  0.8925  1.3034 -0.2707
 2770SOL    HW2 8130   3.107   4.306   0.200 -1.2899  0.8153 -0.4706
 2771SOL     OW 8131   4.789   2.658   0.032 -0.1028 -0.1298  0.1505
 2771SOL    HW1 8132   4.691   2.677   0.043  0.0398 -0.1016  1.5607
 2771SOL    HW2 8133   4.805   2.560   0.042  0.2481  0.0930  2.1833
 2772SOL     OW 8134   2.040   3.515   4.863 -0.3823 -0.9909  0.3911
 2772SOL    HW1 8135   2.067   3.610   4.878  0.1267 -0.8143 -1.3888
 2772SOL    HW2 8136   2.101   3.474   4.795 -1.5735 -2.1072 -0.0376
 2773SOL     OW 8137   0.159   3.399   3.325  0.0670  0.6047  0.0379
 2773SOL    HW1 8138   0.203   3.427   3.239  1.8931  1.0652  1.0724
 2773SOL    HW2 8139   0.219   3.421   3.402 -2.1175  1.4731  1.5832
 2774SOL     OW 8140   1.217   2.484   2.644  0.1854 -0.0375  0.1222
 2774SOL    HW1 8141   1.298   2.508   2.698  0.7531  1.2941 -1.2324
 2774SOL    HW2 8142   1.168   2.409   2.689  0.1150  1.5327  2.9432
 2775SOL     OW 8143   0.086   2.371   4.713 -0.4358  0.1236  0.3613
 2775SOL    HW1 8144   0.105   2.469   4.712 -1.5858  0.3673  0.7871
 2775SOL    HW2 8145   0.062   2.342   4.806 -3.1002  0.0769 -0.2631
 2776SOL     OW 8146   4.926   2.095   3.565 -0.3332  0.3554  0.1151
 2776SOL    HW1 8147   5.006   2.128   3.516  0.4723 -0.6611  0.7140
 2776SOL    HW2 8148   4.861   2.170   3.577  0.1670  1.0091 -1.0514
 2777SOL     OW 8149   4.477   3.028   4.942  0.4309 -0.0696 -0.6098
 2777SOL    HW1 8150   4.525   3.074   5.017 -0.0984  2.5812 -1.8143
 2777SOL    HW2 8151   4.439   3.096   4.880 -3.3641 -2.0309 -0.7114
 2778SOL     OW 8152   1.053   2.877   1.977  0.3153 -0.0617  0.1798
 2778SOL    HW1 8153   1.073   2.947   2.045  0.5152  2.2836 -2.1253
 2778SOL    HW2 8154   1.138   2.841   1.940  0.2211 -0.1582  0.0560
 2779SOL     OW 8155   3.378   1.162   0.470  0.0001 -0.2367  0.2227
 2779SOL    HW1 8156   3.302   1.228   0.473  0.1884  0.0650 -1.2554
 2779SOL    HW2 8157   3.463   1.209   0.495  0.1165  0.0768 -0.7236
 2780SOL     OW 8158   0.044   4.518   4.597 -0.0068 -0.3415 -0.0888
 2780SOL    HW1 8159  -0.012   4.600   4.590 -0.3969 -0.3240  2.2871
 2780SOL    HW2 8160   0.081   4.494   4.507 -1.2714  1.4297 -1.1320
 2781SOL     OW 8161   2.079   1.803   2.788 -0.6986 -0.2695 -0.2479
 2781SOL    HW1 8162   1.997   1.811   2.846  1.5846 -0.0944  3.2753
 2781SOL    HW2 8163   2.092   1.707   2.762 -1.1822 -0.5558  0.5138
 2782SOL     OW 8164   3.638   4.723   3.082  0.4841 -0.2492  0.6521
 2782SOL    HW1 8165   3.663   4.627   3.095 -0.2698 -0.2679  2.2816
 2782SOL    HW2 8166   3.541   4.735   3.103  0.7186  0.9685  1.1391
 2783SOL     OW 8167   4.210   0.073   3.083 -0.1779  0.4917 -0.4559
 2783SOL    HW1 8168   4.163   0.132   3.149 -0.2034  1.2896 -1.1711
 2783SOL    HW2 8169   4.307   0.101   3.077  0.9680 -2.3284  2.4083
 2784SOL     OW 8170   2.311   2.424   4.167 -0.1393 -0.3610 -0.0116
 2784SOL    HW1 8171   2.247   2.348   4.180 -1.0770  0.5748  1.0102
 2784SOL    HW2 8172   2.302   2.488   4.243  2.2352 -0.3509  0.3269
 2785SOL     OW 8173   0.227   4.593   4.218  0.5739 -0.8927 -0.0490
 2785SOL    HW1 8174   0.273   4.585   4.130  0.6866 -1.6353  0.0664
 2785SOL    HW2 8175   0.271   4.664   4.273 -0.4071  0.5977 -1.1279
 2786SOL     OW 8176   4.444   2.114   1.759  0.2645  0.2551  0.4769
 2786SOL    HW1 8177   4.435   2.189   1.825 -2.1495  0.7008 -0.2415
 2786SOL    HW2 8178   4.359   2.061   1.757  0.3606  0.0607 -1.9961
 2787SOL     OW 8179   4.475   4.171   2.565 -0.3335  0.3078  0.3642
 2787SOL    HW1 8180   4.422   4.129   2.639  0.3526 -1.6990 -0.2246
 2787SOL    HW2 8181   4.459   4.270   2.565  0.4822  0.5578  3.8664
 2788SOL     OW 8182   3.812   2.468   2.220  0.0235  0.2268 -0.0318
 2788SOL    HW1 8183   3.893   2.526   2.229  0.3662 -0.5099  2.3188
 2788SOL    HW2 8184   3.807   2.431   2.127  1.4326  1.6016 -0.7036
 2789SOL     OW 8185   0.206   3.161   4.891  0.6064  0.0018 -0.0574
 2789SOL    HW1 8186   0.291   3.187   4.938  0.8846 -1.1925  0.1378
 2789SOL    HW2 8187   0.226   3.091   4.823 -0.4304 -1.5101  1.1257
 2790SOL     OW 8188   2.869   4.923   0.131  0.1024  0.1523  0.4656
 2790SOL    HW1 8189   2.920   4.839   0.148 -1.0629 -0.4607  0.9985
 2790SOL    HW2 8190   2.840   4.964   0.218  0.1555  0.7877  0.1912
 2791SOL     OW 8191   4.666   4.208   1.099 -0.3097  0.3107 -0.0817
 2791SOL    HW1 8192   4.760   4.197   1.066  0.0533  0.0541  1.0061
 2791SOL    HW2 8193   4.604   4.210   1.021  0.2860 -2.4357 -0.7371
 2792SOL     OW 8194   1.736   3.071   0.350  0.2854 -0.1572  0.5157
 2792SOL    HW1 8195   1.725   3.017   0.433  0.3780  0.8340  1.1857
 2792SOL    HW2 8196   1.834   3.080   0.329  0.2370 -2.7494 -1.3025
 2793SOL     OW 8197   3.967   4.977   0.801  0.9017  0.6921 -0.2709
 2793SOL    HW1 8198   3.898   5.036   0.759 -1.2102  0.5682  2.7285
 2793SOL    HW2 8199   3.944   4.881   0.783  1.5307  0.6632 -0.9934
 2794SOL     OW 8200   2.577   1.474   3.396  0.4723 -0.1320  0.1190
 2794SOL    HW1 8201   2.634   1.527   3.334 -0.1630  0.3000 -0.1022
 2794SOL    HW2 8202   2.502   1.530   3.430  1.1366 -0.1744  1.7637
 2795SOL     OW 8203   3.531   4.980   0.095 -0.2931  0.5601 -0.6392
 2795SOL    HW1 8204   3.443   4.953   0.135  0.5220 -1.8167 -0.2475
 2795SOL    HW2 8205   3.603   4.970   0.164  0.8824 -1.8596 -2.0765
 2796SOL     OW 8206   1.130   3.404   4.580  0.4969  0.0137  0.6778
 2796SOL    HW1 8207   1.169   3.496   4.569  0.4984 -0.1715 -1.2515
 2796SOL    HW2 8208   1.032   3.407   4.560  0.3430 -0.2821  1.3587
 2797SOL     OW 8209   3.628   0.249   0.038 -0.0812  0.4859 -0.1667
 2797SOL    HW1 8210   3.704   0.203  -0.008  0.1583 -0.4200  1.0985
 2797SOL    HW2 8211   3.546   0.243  -0.020  0.1567 -0.8227 -0.3954
 2798SOL     OW 8212   4.404   4.070   2.804 -0.5941  0.2645  0.1160
 2798SOL    HW1 8213   4.394   3.974   2.830 -1.5502  0.7352  1.5964
 2798SOL    HW2 8214   4.449   4.120   2.879 -0.0507  0.9714 -0.6647
 2799SOL     OW 8215   2.325   4.075   1.975  0.0165 -0.2550  0.2773
 2799SOL    HW1 8216   2.411   4.067   1.924  0.2904  1.6285  0.3656
 2799SOL    HW2 8217   2.258   4.124   1.919  0.3650  1.9949  1.6625
 2800SOL     OW 8218   3.488   2.536   3.257 -0.3789 -0.5493  0.0897
 2800SOL    HW1 8219   3.511   2.609   3.322 -0.5673 -0.0293 -0.4216
 2800SOL    HW2 8220   3.391   2.542   3.234  0.1215  0.6543 -1.9207
 2801SOL     OW 8221   2.940   3.726   2.487 -0.5404 -0.1726 -0.7880
 2801SOL    HW1 8222   3.007   3.652   2.494  0.6937  1.0269  0.9897
 2801SOL    HW2 8223   2.857   3.692   2.442 -1.0081 -3.3654  2.1076
 2802SOL     OW 8224   0.963   2.994   3.134  0.4723 -0.0753 -0.1399
 2802SOL    HW1 8225   1.036   2.926   3.138  1.1037  0.5768 -0.1802
 2802SOL    HW2 8226   0.890   2.962   3.074  0.4307 -1.0170  0.4009
 2803SOL     OW 8227   0.433   0.205   4.694  0.0764 -0.3175 -0.2100
 2803SOL    HW1 8228   0.415   0.205   4.596  0.2885  0.8972 -0.2685
 2803SOL    HW2 8229   0.428   0.299   4.729 -0.2355 -0.7591  0.9860
 2804SOL     OW 8230   0.786   1.529   0.492  0.1128 -0.2693  0.4951
 2804SOL    HW1 8231   0.781   1.438   0.452  0.5833 -0.0108 -0.1731
 2804SOL    HW2 8232   0.694   1.563   0.510 -0.2429  0.3181 -2.0519
 2805SOL     OW 8233   0.036   1.263   4.487 -0.2436 -0.0870 -0.2793
 2805SOL    HW1 8234   0.010   1.223   4.574 -0.6117 -0.1219 -0.4013
 2805SOL    HW2 8235   0.073   1.192   4.427 -1.1495 -0.3063 -0.5932
 2806SOL     OW 8236   2.568   2.507   3.674  0.0475  0.3530 -0.3486
 2806SOL    HW1 8237   2.634   2.518   3.600 -0.1314 -0.0837 -0.5757
 2806SOL    HW2 8238   2.600   2.439   3.740 -0.1397  0.1890 -0.4239
 2807SOL     OW 8239   3.519   0.911   1.434 -0.1079 -0.3696  0.3445
 2807SOL    HW1 8240   3.456   0.967   1.489  0.9413 -0.2996  1.5178
 2807SOL    HW2 8241   3.540   0.959   1.349 -0.5320  0.2615  0.5814
 2808SOL     OW 8242   0.240   4.402   0.121  0.3654  0.3533  0.1559
 2808SOL    HW1 8243   0.318   4.465   0.126  0.1765  0.8009 -1.6572
 2808SOL    HW2 8244   0.159   4.447   0.158  0.3943  0.9328 -0.4596
 2809SOL     OW 8245   0.346   2.992   0.277 -0.2456  0.0096  0.3792
 2809SOL    HW1 8246   0.286   2.958   0.349 -0.5704  0.1575  0.1810
 2809SOL    HW2 8247   0.352   2.924   0.203  1.6431 -1.0239  1.3985
 2810SOL     OW 8248   4.116   0.038   1.285 -0.1614 -0.3336  0.9384
 2810SOL    HW1 8249   4.067  -0.040   1.325  0.5311 -1.6374 -0.6129
 2810SOL    HW2 8250   4.094   0.044   1.187  0.5945  0.8063  0.8157
 2811SOL     OW 8251   0.968   2.610   2.529 -0.2181 -0.5568 -0.1767
 2811SOL    HW1 8252   0.917   2.528   2.502  0.4977 -1.0601 -0.0400
 2811SOL    HW2 8253   1.064   2.585   2.546  0.3443  0.5634 -1.5502
 2812SOL     OW 8254   2.002   0.372   2.093  0.1350 -0.7508 -0.7343
 2812SOL    HW1 8255   2.075   0.430   2.058 -0.1161 -0.7033 -1.1787
 2812SOL    HW2 8256   1.987   0.296   2.031 -0.4022 -0.5926 -0.8000
 2813SOL     OW 8257   2.763   4.345   4.308  0.0391 -0.1317 -0.0753
 2813SOL    HW1 8258   2.841   4.291   4.339 -0.2931 -0.6313 -0.0846
 2813SOL    HW2 8259   2.752   4.425   4.367 -1.6157 -1.9437  2.2899
 2814SOL     OW 8260   2.968   4.318   1.077  0.2124 -0.0422 -0.3451
 2814SOL    HW1 8261   2.870   4.331   1.087  0.3809  1.0230  0.0486
 2814SOL    HW2 8262   3.004   4.383   1.010  1.0147  1.2675  1.3012
 2815SOL     OW 8263   3.523   0.168   3.106 -0.4025 -0.8559  0.2145
 2815SOL    HW1 8264   3.616   0.167   3.144 -0.1439 -0.3715 -0.3766
 2815SOL    HW2 8265   3.477   0.083   3.128  1.3514 -2.6084 -2.3435
 2816SOL     OW 8266   4.649   0.697   4.443 -0.2125 -0.1121  0.4241
 2816SOL    HW1 8267   4.697   0.699   4.531 -2.3856 -3.9587  1.9235
 2816SOL    HW2 8268   4.551   0.685   4.458 -0.8368  0.3085 -2.5641
 2817SOL     OW 8269   3.505   2.716   4.777  0.8881 -0.1991 -0.5465
 2817SOL    HW1 8270   3.429   2.733   4.715  0.1930 -1.0256  0.0648
 2817SOL    HW2 8271   3.501   2.781   4.854 -1.9645 -3.0155  1.9721
 2818SOL     OW 8272   0.940   0.980   0.495 -0.4090  0.3190  0.1905
 2818SOL    HW1 8273   0.909   0.959   0.403 -0.4636  0.2825  0.2174
 2818SOL    HW2 8274   1.031   1.020   0.491  0.8086 -2.2847  0.3195
 2819SOL     OW 8275   2.812   4.319   4.876 -0.4578 -0.7501 -0.0717
 2819SOL    HW1 8276   2.900   4.298   4.834 -0.0543 -1.2414  0.9911
 2819SOL    HW2 8277   2.811   4.413   4.908  0.5409 -1.3534  1.8990
 2820SOL     OW 8278   4.525   2.736   0.843 -0.1358 -0.3796  0.8099
 2820SOL    HW1 8279   4.506   2.820   0.894  0.1770 -0.0395  0.3667
 2820SOL    HW2 8280   4.621   2.710   0.856  0.3023  0.4355 -0.6586
 2821SOL     OW 8281   3.240   2.328   4.386 -0.2129  0.1665 -0.0074
 2821SOL    HW1 8282   3.339   2.318   4.400  0.3301  2.3413 -1.7128
 2821SOL    HW2 8283   3.220   2.422   4.358 -2.7228 -0.3607 -0.1753
 2822SOL     OW 8284   3.768   0.538   4.170  0.4581  0.2595 -0.1996
 2822SOL    HW1 8285   3.756   0.611   4.238  0.3127 -1.1173  1.3281
 2822SOL    HW2 8286   3.789   0.452   4.217 -2.7647 -1.4983 -1.6510
 2823SOL     OW 8287   2.132   2.002   3.274 -0.2963 -0.1408  0.3615
 2823SOL    HW1 8288   2.103   2.073   3.210 -2.5594 -0.5313  0.8741
 2823SOL    HW2 8289   2.170   2.045   3.356 -0.8386  0.4475  0.3122
 2824SOL     OW 8290   3.543   3.753   2.581 -0.0646 -0.6544  0.3075
 2824SOL    HW1 8291   3.463   3.813   2.573  0.5938  0.1633 -0.3645
 2824SOL    HW2 8292   3.512   3.658   2.588 -1.1017 -0.5727 -2.0427
 2825SOL     OW 8293   2.838   2.390   4.982 -0.0928 -0.2960  0.3024
 2825SOL    HW1 8294   2.916   2.453   4.991  0.3005 -0.8229  0.6255
 2825SOL    HW2 8295   2.753   2.442   4.988  0.1961  0.6481 -2.3652
 2826SOL     OW 8296   4.102   0.037   4.652  0.0217  0.4507 -0.2809
 2826SOL    HW1 8297   4.186  -0.010   4.626 -0.4026  0.3743 -1.6107
 2826SOL    HW2 8298   4.028   0.010   4.589 -0.9555  0.6405  0.7481
 2827SOL     OW 8299   0.194   0.189   1.895 -0.3989 -0.1803 -0.6086
 2827SOL    HW1 8300   0.247   0.135   1.830 -0.7540 -0.8771 -0.3291
 2827SOL    HW2 8301   0.105   0.210   1.855 -0.9873 -1.4148 -0.0142
 2828SOL     OW 8302   1.855   1.822   1.212 -0.0215  1.1092  0.3422
 2828SOL    HW1 8303   1.797   1.869   1.145 -0.6417  1.0338  0.8178
 2828SOL    HW2 8304   1.860   1.876   1.296  1.9397  1.9363 -0.2395
 2829SOL     OW 8305   2.240   4.881   2.422 -0.0025  0.3265  0.4267
 2829SOL    HW1 8306   2.320   4.932   2.453  0.1034 -0.3343  1.2870
 2829SOL    HW2 8307   2.254   4.784   2.438 -0.4542  0.0765 -0.6176
 2830SOL     OW 8308   0.853   2.331   1.610  0.0928 -0.0314 -0.5949
 2830SOL    HW1 8309   0.817   2.341   1.702  0.0607  2.7889 -0.8369
 2830SOL    HW2 8310   0.921   2.402   1.592  0.3002 -0.6677 -2.6812
 2831SOL     OW 8311   1.825   2.206   1.165 -0.0829  0.3635  0.3562
 2831SOL    HW1 8312   1.732   2.202   1.128 -0.5036 -2.2789  1.4577
 2831SOL    HW2 8313   1.887   2.163   1.100  0.1476  0.8477  0.2522
 2832SOL     OW 8314   3.437   0.797   3.000 -0.2057 -0.6182 -0.8531
 2832SOL    HW1 8315   3.379   0.782   3.081  0.1531 -0.8340 -0.6295
 2832SOL    HW2 8316   3.380   0.800   2.918 -0.7342  1.0861 -0.4491
 2833SOL     OW 8317   2.244   2.340   2.097  0.2615  0.2626 -0.1302
 2833SOL    HW1 8318   2.217   2.269   2.162 -2.7572 -0.8026 -2.3086
 2833SOL    HW2 8319   2.315   2.306   2.037 -0.2886 -0.5025 -0.3610
 2834SOL     OW 8320   0.948   0.760   2.356  0.1036  0.1852  0.4822
 2834SOL    HW1 8321   0.897   0.674   2.363  0.2558  0.1035  0.5830
 2834SOL    HW2 8322   0.887   0.832   2.322 -0.3137  0.2969  1.4418
 2835SOL     OW 8323   3.760   2.091   1.834 -0.2411  0.1795  0.3276
 2835SOL    HW1 8324   3.705   2.017   1.795 -1.2027  0.5774  0.8886
 2835SOL    HW2 8325   3.739   2.176   1.785 -2.7850  1.0667  2.7028
 2836SOL     OW 8326   0.538   0.505   3.375 -0.0359 -0.2865 -0.6048
 2836SOL    HW1 8327   0.528   0.465   3.284 -0.1658  1.0976 -1.2159
 2836SOL    HW2 8328   0.627   0.482   3.413 -0.3397 -1.6560 -0.6684
 2837SOL     OW 8329   1.670   0.262   4.545 -0.0379 -0.3294 -0.2103
 2837SOL    HW1 8330   1.714   0.221   4.464  0.1242 -0.3992 -0.0866
 2837SOL    HW2 8331   1.600   0.199   4.579  0.1802 -0.4858 -0.0475
 2838SOL     OW 8332   2.281   4.120   4.969 -0.0787  0.2100  0.1762
 2838SOL    HW1 8333   2.282   4.027   5.006  0.6401  0.3509  0.5349
 2838SOL    HW2 8334   2.314   4.183   5.039  0.1546  0.6359 -0.3141
 2839SOL     OW 8335   3.361   1.295   0.807  0.0528 -0.0785  0.0304
 2839SOL    HW1 8336   3.348   1.254   0.897 -0.0599  1.0464  0.5457
 2839SOL    HW2 8337   3.305   1.378   0.800 -0.7813 -0.7549 -1.4858
 2840SOL     OW 8338   3.628   4.711   3.828  0.1836 -0.0374  0.1355
 2840SOL    HW1 8339   3.672   4.642   3.770  0.8719  0.0927  0.4873
 2840SOL    HW2 8340   3.568   4.768   3.772  1.5034  0.6426 -0.6354
 2841SOL     OW 8341   3.767   3.110   4.860 -0.1875 -0.4245  0.3003
 2841SOL    HW1 8342   3.857   3.069   4.841 -0.0206  0.5096 -1.1143
 2841SOL    HW2 8343   3.731   3.149   4.775 -0.8051  1.4210  1.3707
 2842SOL     OW 8344   4.748   4.787   4.377 -0.0986 -0.1989 -0.0296
 2842SOL    HW1 8345   4.680   4.714   4.382  0.1602 -0.5929 -1.7007
 2842SOL    HW2 8346   4.828   4.754   4.327  0.0393  1.2283 -0.7831
 2843SOL     OW 8347   3.796   4.836   1.102  0.7960 -0.0961  0.1724
 2843SOL    HW1 8348   3.784   4.808   1.007  2.4579  0.8625 -0.3664
 2843SOL    HW2 8349   3.728   4.905   1.126  1.1737  0.6237 -0.7665
 2844SOL     OW 8350   1.031   4.731   3.373 -0.2102 -0.2710  0.2472
 2844SOL    HW1 8351   0.994   4.638   3.376 -0.5041 -0.1436  0.6453
 2844SOL    HW2 8352   0.982   4.789   3.439 -0.4827  0.3342 -0.4810
 2845SOL     OW 8353   4.908   1.450   0.180 -0.4711 -0.4282 -0.4476
 2845SOL    HW1 8354   4.809   1.458   0.190 -0.2198 -0.1295  3.6711
 2845SOL    HW2 8355   4.951   1.538   0.201  0.7159 -1.0321 -0.2371
 2846SOL     OW 8356   2.341   3.641   4.600  0.5137  0.0776 -0.0138
 2846SOL    HW1 8357   2.316   3.570   4.666  0.6070  0.9670  0.9902
 2846SOL    HW2 8358   2.277   3.717   4.608  2.0947  1.3624  0.9356
 2847SOL     OW 8359   1.938   3.224   2.307 -0.2120  0.3538  0.3270
 2847SOL    HW1 8360   2.017   3.205   2.249 -0.1919  0.7858  0.2097
 2847SOL    HW2 8361   1.854   3.216   2.253 -0.2439  0.0043  0.4249
 2848SOL     OW 8362   0.314   2.663   2.319 -0.2845  0.0018 -0.1103
 2848SOL    HW1 8363   0.305   2.754   2.357 -0.3502  0.2745 -0.7564
 2848SOL    HW2 8364   0.393   2.617   2.359  0.2941  0.6867 -0.4377
 2849SOL     OW 8365   2.917   4.760   0.859 -0.1331  0.6520  0.3028
 2849SOL    HW1 8366   2.836   4.714   0.896  0.4003 -1.5535 -1.1284
 2849SOL    HW2 8367   2.924   4.742   0.761  0.7791  2.8846 -0.0958
 2850SOL     OW 8368   1.685   0.823   4.733  0.0580 -0.2275 -0.3693
 2850SOL    HW1 8369   1.603   0.777   4.767  0.1808 -0.4211 -0.3329
 2850SOL    HW2 8370   1.765   0.788   4.781  0.1071  0.3445 -0.0324
 2851SOL     OW 8371   3.701   4.561   0.317 -0.5744 -0.4132  0.4708
 2851SOL    HW1 8372   3.764   4.592   0.246 -0.5032  0.8348  1.0516
 2851SOL    HW2 8373   3.612   4.541   0.276 -0.3205 -0.4346 -0.0796
 2852SOL     OW 8374   4.061   2.228   0.760  0.4318  0.3304 -0.0352
 2852SOL    HW1 8375   3.962   2.229   0.753  0.5257 -0.1311 -1.6969
 2852SOL    HW2 8376   4.095   2.135   0.747  1.1729  0.7387 -1.1288
 2853SOL     OW 8377   0.662   1.277   3.748  0.0481 -0.0960 -0.4580
 2853SOL    HW1 8378   0.620   1.368   3.745 -0.9871 -0.5853 -1.4358
 2853SOL    HW2 8379   0.753   1.284   3.787  0.1155  1.4209 -0.8249
 2854SOL     OW 8380   1.933   3.808   4.513  0.1774  0.2214 -0.6319
 2854SOL    HW1 8381   1.883   3.724   4.493 -0.8409  1.1770 -2.3430
 2854SOL    HW2 8382   1.955   3.855   4.428 -2.4886  3.4747  0.2571
 2855SOL     OW 8383   1.006   3.525   1.105  0.3175 -0.4583 -0.0449
 2855SOL    HW1 8384   1.081   3.541   1.169  0.7486 -1.3982 -0.2860
 2855SOL    HW2 8385   0.919   3.525   1.154  0.4635  0.7338  0.2262
 2856SOL     OW 8386   2.347   4.543   0.462 -0.0445  0.0967 -0.2630
 2856SOL    HW1 8387   2.318   4.477   0.393  1.8227 -0.9638 -0.1143
 2856SOL    HW2 8388   2.281   4.618   0.468 -2.1213 -1.6131 -0.6191
 2857SOL     OW 8389   1.379   2.349   1.192 -0.2394 -0.2138  0.2177
 2857SOL    HW1 8390   1.409   2.443   1.206  2.0728 -1.1245  2.1432
 2857SOL    HW2 8391   1.281   2.348   1.173 -0.7376  2.4665  2.0083
 2858SOL     OW 8392   2.730   4.404   4.030  0.2817  0.0962  0.2807
 2858SOL    HW1 8393   2.741   4.375   4.126 -1.4611 -0.3923  0.3619
 2858SOL    HW2 8394   2.768   4.496   4.019  0.9167 -0.0173  1.3268
 2859SOL     OW 8395   0.474   3.774   4.933 -0.2996 -0.4937  0.6517
 2859SOL    HW1 8396   0.512   3.770   5.025 -0.4309 -0.2706  0.7172
 2859SOL    HW2 8397   0.395   3.714   4.927  0.6024 -1.6827  0.2517
 2860SOL     OW 8398   0.774   0.154   4.883 -0.5106  0.2511  0.3731
 2860SOL    HW1 8399   0.772   0.253   4.896  1.4395  0.4692 -0.5383
 2860SOL    HW2 8400   0.726   0.131   4.798  0.3698  0.6245 -0.2445
 2861SOL     OW 8401   2.249   1.897   4.761  0.3100  0.5221 -0.0004
 2861SOL    HW1 8402   2.209   1.811   4.729 -0.4561  0.3516  1.3321
 2861SOL    HW2 8403   2.296   1.942   4.686  0.3237 -0.8369 -0.8357
 2862SOL     OW 8404   3.998   3.722   0.008 -0.3455  0.3547  0.1171
 2862SOL    HW1 8405   4.003   3.821   0.002  0.1582  0.3627  0.5861
 2862SOL    HW2 8406   3.992   3.683  -0.083 -1.4994  0.8573 -0.0358
 2863SOL     OW 8407   2.946   2.616   1.694  0.0411  0.6535 -0.2370
 2863SOL    HW1 8408   2.872   2.557   1.661  0.9219  0.2015 -1.4948
 2863SOL    HW2 8409   3.033   2.585   1.654  1.0291  0.7454  1.7581
 2864SOL     OW 8410   4.405   1.351   3.742  0.1300  0.2233 -0.3669
 2864SOL    HW1 8411   4.488   1.301   3.720  0.6978 -1.1367  3.9407
 2864SOL    HW2 8412   4.429   1.436   3.789 -0.9161  0.4835 -0.2797
 2865SOL     OW 8413   3.418   2.728   1.262  0.3725 -0.3976  0.1136
 2865SOL    HW1 8414   3.454   2.750   1.353 -2.8783  0.9769  1.2413
 2865SOL    HW2 8415   3.448   2.797   1.196 -0.4483  0.9565  1.1006
 2866SOL     OW 8416   4.063   4.456   1.699  0.2077  0.5491 -0.1228
 2866SOL    HW1 8417   4.137   4.395   1.672 -0.3057 -0.2604  0.2543
 2866SOL    HW2 8418   4.005   4.475   1.619  0.9140  1.3533 -0.4675
 2867SOL     OW 8419   4.549   0.204   4.652  0.3986  0.6037  0.1455
 2867SOL    HW1 8420   4.529   0.267   4.728 -0.7531  0.6520 -0.1820
 2867SOL    HW2 8421   4.463   0.172   4.612  0.9324  2.1837 -2.4992
 2868SOL     OW 8422   3.736   3.364   1.866 -0.1953 -0.6944  0.0151
 2868SOL    HW1 8423   3.653   3.368   1.811  0.2020  1.4232 -0.5361
 2868SOL    HW2 8424   3.813   3.398   1.813  0.4896  0.0160  1.3983
 2869SOL     OW 8425   4.408   4.493   1.237  0.6875  0.7010  0.1366
 2869SOL    HW1 8426   4.489   4.453   1.279 -0.4034 -0.8489  0.8721
 2869SOL    HW2 8427   4.332   4.490   1.301 -0.3964  0.5104 -1.1032
 2870SOL     OW 8428   0.731   4.416   4.896 -0.3230  0.2290 -0.1473
 2870SOL    HW1 8429   0.777   4.357   4.829 -1.8910 -0.7422 -0.4169
 2870SOL    HW2 8430   0.680   4.487   4.848 -1.9359 -0.8261 -0.0632
 2871SOL     OW 8431   0.317   1.901   0.603 -0.4102  0.3681 -0.0396
 2871SOL    HW1 8432   0.306   1.804   0.624 -1.9088  0.0358 -2.1341
 2871SOL    HW2 8433   0.384   1.912   0.530 -0.8113  0.8313 -0.3440
 2872SOL     OW 8434   0.003   2.075   3.901  0.1253  0.1880  0.1948
 2872SOL    HW1 8435  -0.022   2.019   3.979 -1.8536  2.0817  1.0214
 2872SOL    HW2 8436   0.087   2.126   3.922 -0.6688  1.0801  1.3709
 2873SOL     OW 8437   0.159   2.111   1.682 -0.2166  0.0827  0.0897
 2873SOL    HW1 8438   0.182   2.207   1.699 -0.3981 -0.1225  1.6241
 2873SOL    HW2 8439   0.176   2.089   1.586 -0.2690  1.6717 -0.3099
 2874SOL     OW 8440   3.153   4.858   4.872 -0.4822  0.8474  0.0804
 2874SOL    HW1 8441   3.226   4.791   4.888 -2.5766 -1.5072  0.3037
 2874SOL    HW2 8442   3.178   4.916   4.795  2.1269  0.9559  0.8988
 2875SOL     OW 8443   1.491   2.314   2.694 -0.1200  0.1081 -0.4300
 2875SOL    HW1 8444   1.480   2.401   2.744 -0.1453 -1.0121  1.6151
 2875SOL    HW2 8445   1.577   2.271   2.720 -0.5673 -0.9507 -0.6446
 2876SOL     OW 8446   2.878   2.162   3.364  0.0138 -0.4296  0.4239
 2876SOL    HW1 8447   2.866   2.201   3.273 -0.3967  1.1030  1.0942
 2876SOL    HW2 8448   2.868   2.063   3.360 -0.4052 -0.3441 -1.1252
 2877SOL     OW 8449   3.069   0.876   1.642  0.3817  0.4050 -0.0900
 2877SOL    HW1 8450   3.016   0.831   1.571  0.0581  1.3478 -0.4653
 2877SOL    HW2 8451   3.014   0.887   1.724 -0.2965  2.0127 -0.7076
 2878SOL     OW 8452   0.387   2.165   3.564  0.5857  0.1211  0.1198
 2878SOL    HW1 8453   0.449   2.230   3.521  1.3308 -0.0708  0.8672
 2878SOL    HW2 8454   0.430   2.128   3.646  0.8086 -2.3638 -1.0084
 2879SOL     OW 8455   4.272   3.245   0.390 -0.4396 -0.7749 -0.1229
 2879SOL    HW1 8456   4.181   3.245   0.348  0.2540 -1.1325 -1.7235
 2879SOL    HW2 8457   4.265   3.269   0.487 -2.0396  1.0602 -0.6331
 2880SOL     OW 8458   4.339   1.066   2.294 -0.1548 -0.1488  0.2125
 2880SOL    HW1 8459   4.366   1.124   2.217 -0.0873 -1.6787 -0.9618
 2880SOL    HW2 8460   4.406   1.075   2.368 -0.2726  1.4170  0.1553
 2881SOL     OW 8461   4.232   2.674   2.272 -0.1670  0.2714 -0.2813
 2881SOL    HW1 8462   4.215   2.577   2.257  1.6864 -0.0652 -0.3952
 2881SOL    HW2 8463   4.253   2.690   2.368  0.9049  0.3159 -0.5095
 2882SOL     OW 8464   4.755   0.143   0.173  0.2659  0.0934 -0.4676
 2882SOL    HW1 8465   4.847   0.141   0.132  0.9209 -1.0241  0.9738
 2882SOL    HW2 8466   4.754   0.207   0.249 -0.3083  0.4780 -0.7911
 2883SOL     OW 8467   4.274   0.275   1.311 -0.0521 -0.3904 -0.7173
 2883SOL    HW1 8468   4.222   0.190   1.303 -0.6648 -0.1564  0.4587
 2883SOL    HW2 8469   4.230   0.334   1.379  1.8345 -0.2228  0.4247
 2884SOL     OW 8470   2.130   0.801   3.927  0.0323  0.5533 -0.1323
 2884SOL    HW1 8471   2.070   0.869   3.968  0.6744 -0.2273  2.2823
 2884SOL    HW2 8472   2.144   0.822   3.830 -2.2883  2.0047 -0.2163
 2885SOL     OW 8473   0.317   4.174   2.849  0.4704  0.4409  0.2877
 2885SOL    HW1 8474   0.217   4.177   2.852  0.4370  0.8700 -0.9524
 2885SOL    HW2 8475   0.354   4.264   2.872  0.6100  0.1273  1.3680
 2886SOL     OW 8476   4.458   0.003   2.765 -0.1578  0.2454 -0.3721
 2886SOL    HW1 8477   4.381   0.067   2.764  1.4332  2.2608 -0.7419
 2886SOL    HW2 8478   4.540   0.050   2.798  1.2811 -1.3933 -1.4237
 2887SOL     OW 8479   0.212   2.882   1.219  0.0222 -0.3416  0.1127
 2887SOL    HW1 8480   0.225   2.906   1.315 -1.5961 -0.0272  0.2811
 2887SOL    HW2 8481   0.260   2.796   1.199  1.3778  0.2091  0.8714
 2888SOL     OW 8482   2.168   4.831   2.016  0.4521  0.0595 -0.0738
 2888SOL    HW1 8483   2.205   4.759   1.958  0.5254  0.5955 -0.6956
 2888SOL    HW2 8484   2.240   4.867   2.075  0.5803  0.1037 -0.2578
 2889SOL     OW 8485   3.573   2.270   0.253 -0.8104  0.1378 -0.6312
 2889SOL    HW1 8486   3.477   2.278   0.280 -0.5903 -0.6577  0.4746
 2889SOL    HW2 8487   3.591   2.177   0.219 -0.6331  0.5585 -1.7266
 2890SOL     OW 8488   2.101   2.363   0.238 -0.5647  0.1096 -0.0453
 2890SOL    HW1 8489   2.134   2.289   0.180 -0.2298 -0.7589  1.2109
 2890SOL    HW2 8490   2.116   2.451   0.191  3.4866 -0.1741  0.2924
 2891SOL     OW 8491   1.380   2.196   2.912  0.5555 -0.0684 -0.6607
 2891SOL    HW1 8492   1.329   2.271   2.954 -0.3952 -0.0559 -1.7783
 2891SOL    HW2 8493   1.416   2.225   2.824  0.2189 -0.8848 -1.0874
 2892SOL     OW 8494   0.797   2.897   2.957  0.3479  0.1256 -0.3977
 2892SOL    HW1 8495   0.718   2.949   2.925 -1.2822 -0.1909  2.7634
 2892SOL    HW2 8496   0.773   2.800   2.961  0.6390  0.1036  1.2208
 2893SOL     OW 8497   3.227   0.609   1.799 -0.2382 -0.0286 -0.1095
 2893SOL    HW1 8498   3.276   0.662   1.868  0.8679  1.6725 -2.0455
 2893SOL    HW2 8499   3.291   0.549   1.751 -0.9232 -0.9708  0.1256
 2894SOL     OW 8500   3.110   1.933   1.295 -0.1020 -0.2729  0.1949
 2894SOL    HW1 8501   3.070   1.842   1.300 -0.9580  0.1557  2.0273
 2894SOL    HW2 8502   3.149   1.958   1.384  1.7693  0.4629 -0.7583
 2895SOL     OW 8503   4.581   0.731   4.942 -0.1215  0.1708 -0.1883
 2895SOL    HW1 8504   4.597   0.642   4.983 -1.3503  0.1760  0.3247
 2895SOL    HW2 8505   4.609   0.803   5.006  2.4500  0.2082 -1.2246
 2896SOL     OW 8506   1.221   4.803   0.657 -0.3277  0.5449 -0.0538
 2896SOL    HW1 8507   1.241   4.747   0.576  1.3720 -1.0910  1.4257
 2896SOL    HW2 8508   1.307   4.839   0.694 -1.2690  3.2957 -0.2853
 2897SOL     OW 8509   0.840   1.778   4.086  0.0269 -0.2370  0.1674
 2897SOL    HW1 8510   0.873   1.799   3.994  0.8803  0.5089  0.6350
 2897SOL    HW2 8511   0.759   1.720   4.080  1.0952 -1.6775 -1.0223
 2898SOL     OW 8512   2.533   1.973   3.922  0.5298  0.2060 -0.2362
 2898SOL    HW1 8513   2.631   1.958   3.934  0.3548 -1.3303 -0.4609
 2898SOL    HW2 8514   2.504   2.051   3.977  1.2471 -1.4506  2.7065
 2899SOL     OW 8515   0.934   2.258   3.460 -0.5448 -0.1290 -0.5801
 2899SOL    HW1 8516   0.852   2.234   3.408 -0.7992  2.6496 -1.6274
 2899SOL    HW2 8517   1.014   2.221   3.413 -1.1013 -3.3180  0.7253
 2900SOL     OW 8518   0.473   2.863   0.772 -0.4460 -0.8519  0.0563
 2900SOL    HW1 8519   0.426   2.910   0.847 -0.5817 -2.2063  0.8400
 2900SOL    HW2 8520   0.488   2.928   0.697 -0.9904  0.3334  0.9337
 2901SOL     OW 8521   0.217   3.450   2.368 -0.2504 -0.2984  0.2585
 2901SOL    HW1 8522   0.200   3.364   2.319 -0.9546  0.6676 -1.2484
 2901SOL    HW2 8523   0.148   3.462   2.440 -0.6682 -0.5727 -0.0934
 2902SOL     OW 8524   0.712   4.650   4.453 -0.2478  0.3321  0.0946
 2902SOL    HW1 8525   0.643   4.581   4.432 -1.2211  0.4832  2.5014
 2902SOL    HW2 8526   0.668   4.739   4.466  0.7342  0.9789 -0.8371
 2903SOL     OW 8527   0.076   2.547   1.053  0.4497  0.5156  0.5491
 2903SOL    HW1 8528   0.106   2.609   0.980  0.5151 -0.3125 -0.1469
 2903SOL    HW2 8529   0.103   2.454   1.030  1.5956  0.3958  2.2555
 2904SOL     OW 8530   2.757   1.690   3.700  0.6079 -0.1438  0.1950
 2904SOL    HW1 8531   2.744   1.601   3.658 -1.3829  1.1108 -2.0595
 2904SOL    HW2 8532   2.684   1.706   3.766  0.7700 -0.0363  0.3488
 2905SOL     OW 8533   2.760   1.432   0.954 -0.1662 -0.0191  0.0287
 2905SOL    HW1 8534   2.846   1.481   0.969 -0.8077  1.5338 -1.0459
 2905SOL    HW2 8535   2.688   1.498   0.931 -1.5232 -1.3322  0.3799
 2906SOL     OW 8536   2.658   4.622   1.220 -0.0432 -0.2493 -0.4759
 2906SOL    HW1 8537   2.723   4.651   1.290  0.0460 -0.0192 -0.6527
 2906SOL    HW2 8538   2.568   4.660   1.241  0.0464  0.0560 -0.6402
 2907SOL     OW 8539   3.644   1.603   2.783  0.7666  0.0455 -0.0718
 2907SOL    HW1 8540   3.589   1.566   2.707  0.3484  0.0133  0.2426
 2907SOL    HW2 8541   3.731   1.555   2.787  0.6002 -0.2761 -0.2448
 2908SOL     OW 8542   4.546   2.036   1.501 -0.3226 -0.0093 -0.4433
 2908SOL    HW1 8543   4.535   2.076   1.592 -2.2665  2.3312 -1.5986
 2908SOL    HW2 8544   4.457   2.014   1.463  0.2658  1.0790 -2.5995
 2909SOL     OW 8545   4.962   2.703   4.841  0.2778  0.3353  0.5085
 2909SOL    HW1 8546   4.948   2.720   4.939 -0.3785  3.1425  0.0195
 2909SOL    HW2 8547   4.886   2.742   4.789  1.1597 -0.1165 -1.1982
 2910SOL     OW 8548   3.878   2.055   1.492  0.2306 -0.4698 -0.2167
 2910SOL    HW1 8549   3.811   2.056   1.566  0.5204  0.9889  0.0674
 2910SOL    HW2 8550   3.961   2.104   1.522  0.8271 -0.9282 -1.0844
 2911SOL     OW 8551   1.707   0.738   1.264 -0.5238 -0.4481  0.0794
 2911SOL    HW1 8552   1.633   0.710   1.203 -1.3456  0.3929  0.6728
 2911SOL    HW2 8553   1.743   0.657   1.311 -0.7766 -0.9189 -0.5168
 2912SOL     OW 8554   0.535   2.546   2.447 -0.0615 -0.6533  0.7723
 2912SOL    HW1 8555   0.635   2.545   2.454  0.1192  0.5864 -1.1106
 2912SOL    HW2 8556   0.501   2.452   2.448  1.1362 -1.1020  1.0229
 2913SOL     OW 8557   1.554   2.517   0.177 -0.2700  0.3128  0.0920
 2913SOL    HW1 8558   1.457   2.507   0.200 -0.0094  0.7842  1.5150
 2913SOL    HW2 8559   1.596   2.584   0.238  0.7810  0.7188 -1.0481
 2914SOL     OW 8560   3.387   4.894   0.914  0.5654 -0.1705 -0.1962
 2914SOL    HW1 8561   3.393   4.982   0.960  0.8564  0.4680 -1.4104
 2914SOL    HW2 8562   3.476   4.872   0.873  0.1817 -0.4814 -0.8672
 2915SOL     OW 8563   4.670   4.509   0.045 -0.0140 -0.0935  0.5689
 2915SOL    HW1 8564   4.743   4.560   0.093 -0.8144  0.2329  1.4765
 2915SOL    HW2 8565   4.698   4.493  -0.049  0.8560  0.8194  0.6430
 2916SOL     OW 8566   3.925   2.888   0.199 -0.0053 -0.1543  0.6541
 2916SOL    HW1 8567   3.827   2.909   0.194 -0.1239 -0.4623  1.5982
 2916SOL    HW2 8568   3.966   2.940   0.274  0.5960  0.0960  0.1603
 2917SOL     OW 8569   1.147   1.648   3.380 -0.2469 -0.0554  0.5047
 2917SOL    HW1 8570   1.223   1.642   3.315 -1.9364  1.0455 -1.7247
 2917SOL    HW2 8571   1.180   1.633   3.473  2.6978  0.5251 -0.3648
 2918SOL     OW 8572   1.851   2.920   4.434  0.1374 -0.0534  0.1508
 2918SOL    HW1 8573   1.862   2.883   4.527  0.4300 -1.6583 -0.4895
 2918SOL    HW2 8574   1.756   2.947   4.421 -0.1389 -0.7441  0.6125
 2919SOL     OW 8575   4.410   4.618   0.578  0.0619  0.0376 -0.0583
 2919SOL    HW1 8576   4.335   4.628   0.643 -0.3882 -1.1360 -0.3698
 2919SOL    HW2 8577   4.378   4.639   0.486 -0.1146 -1.1917 -0.2984
 2920SOL     OW 8578   2.451   0.146   3.443 -0.6134 -0.5252 -0.0525
 2920SOL    HW1 8579   2.396   0.076   3.488 -0.4731 -0.2712  0.5136
 2920SOL    HW2 8580   2.452   0.229   3.497  3.4589 -1.6890  2.0884
 2921SOL     OW 8581   0.986   0.837   3.266  0.4987 -0.0871  0.1350
 2921SOL    HW1 8582   0.980   0.738   3.278  0.9198 -0.2073 -0.5876
 2921SOL    HW2 8583   0.945   0.862   3.179  1.8534  0.1646 -0.4627
 2922SOL     OW 8584   4.294   2.062   0.362 -0.8127 -0.3598 -0.0824
 2922SOL    HW1 8585   4.345   1.993   0.311  0.4759  1.6368 -1.6319
 2922SOL    HW2 8586   4.284   2.032   0.457  2.2520 -1.4208  0.0154
 2923SOL     OW 8587   3.977   0.778   4.140  0.0788  0.6133  0.0828
 2923SOL    HW1 8588   3.893   0.724   4.141  0.9977 -0.9325  1.8661
 2923SOL    HW2 8589   3.984   0.828   4.054 -0.9467 -2.0077 -1.6429
 2924SOL     OW 8590   2.593   3.100   0.649 -0.8071  0.4713 -0.0714
 2924SOL    HW1 8591   2.640   3.082   0.563 -1.6450 -0.6284 -0.3156
 2924SOL    HW2 8592   2.499   3.067   0.643 -0.3991 -1.2433  1.8646
 2925SOL     OW 8593   5.028   2.452   0.198 -0.6874  0.2882  0.4569
 2925SOL    HW1 8594   5.057   2.548   0.188 -1.3125  0.3518 -0.8589
 2925SOL    HW2 8595   4.996   2.417   0.110 -1.0084 -0.9659  1.0521
 2926SOL     OW 8596   3.988   2.771   1.987  0.0185 -0.1757 -0.6435
 2926SOL    HW1 8597   3.954   2.766   1.893 -0.2958  0.2889 -0.5529
 2926SOL    HW2 8598   3.991   2.866   2.018  1.5867 -0.1768 -0.7105
 2927SOL     OW 8599   2.424   0.967   0.825  0.2619  0.0023 -0.1217
 2927SOL    HW1 8600   2.387   0.900   0.890  0.0331 -0.7614 -1.0260
 2927SOL    HW2 8601   2.508   0.932   0.785  1.4727  1.3026  1.1616
 2928SOL     OW 8602   3.158   4.974   4.585  0.5922  0.2949 -0.1938
 2928SOL    HW1 8603   3.240   5.032   4.579  0.6465  0.2105 -0.2659
 2928SOL    HW2 8604   3.077   5.028   4.561  0.8305 -0.1080 -2.0503
 2929SOL     OW 8605   2.346   2.911   2.014 -0.0347 -0.3522  0.0153
 2929SOL    HW1 8606   2.404   2.854   1.956 -0.0591  1.0978 -1.5438
 2929SOL    HW2 8607   2.391   3.000   2.027 -0.5719 -0.2529  1.2929
 2930SOL     OW 8608   3.168   1.364   3.436  0.2909  0.1872  0.3393
 2930SOL    HW1 8609   3.134   1.294   3.374  0.1492  0.1057  0.5080
 2930SOL    HW2 8610   3.268   1.371   3.427  0.1863  0.7747 -0.5110
 2931SOL     OW 8611   2.432   4.480   1.677 -0.7789 -0.5597  0.2869
 2931SOL    HW1 8612   2.356   4.492   1.741  0.6735 -0.1652  1.9955
 2931SOL    HW2 8613   2.436   4.558   1.615 -3.2006 -1.6979 -1.4911
 2932SOL     OW 8614   0.762   4.946   3.934  0.1672  0.2581  0.0777
 2932SOL    HW1 8615   0.842   4.927   3.877  0.1382  1.1372 -0.2704
 2932SOL    HW2 8616   0.784   5.020   3.998  0.5405 -1.3731  1.9517
 2933SOL     OW 8617   3.190   2.485   2.498 -0.6414  0.3545 -0.0019
 2933SOL    HW1 8618   3.284   2.450   2.495 -1.1989 -1.1902 -0.5009
 2933SOL    HW2 8619   3.155   2.495   2.405 -1.3268 -0.1013  0.1983
 2934SOL     OW 8620   2.300   5.033   0.189  0.3747  0.3635 -0.1092
 2934SOL    HW1 8621   2.281   5.116   0.136 -1.4486  0.8109  1.1325
 2934SOL    HW2 8622   2.282   4.953   0.133 -0.3494  0.8293 -0.5677
 2935SOL     OW 8623   1.970   1.814   0.262 -0.5591 -0.2018  0.3824
 2935SOL    HW1 8624   2.022   1.736   0.296 -0.6457 -0.3694  0.1366
 2935SOL    HW2 8625   1.886   1.781   0.219 -1.4748  0.1294  1.8318
 2936SOL     OW 8626   4.201   0.660   1.141  0.0725  0.5024 -0.0294
 2936SOL    HW1 8627   4.229   0.571   1.106 -0.9578  0.9124 -2.0369
 2936SOL    HW2 8628   4.143   0.647   1.222  0.0401 -0.6302 -0.2163
 2937SOL     OW 8629   2.025   4.417   3.320  0.5135  0.1276 -0.3296
 2937SOL    HW1 8630   2.113   4.374   3.303  1.2146  1.6636 -0.6788
 2937SOL    HW2 8631   1.952   4.350   3.306  1.4983 -0.6536 -1.9272
 2938SOL     OW 8632   1.263   4.532   1.967 -0.0871  0.6814  0.4187
 2938SOL    HW1 8633   1.334   4.479   1.920  0.6732  0.1603  2.0888
 2938SOL    HW2 8634   1.204   4.576   1.899  1.2696  0.3836 -1.0086
 2939SOL     OW 8635   0.407   4.050   0.285  0.1350  0.2318 -0.0179
 2939SOL    HW1 8636   0.498   4.015   0.262  0.3276 -0.1009  1.1504
 2939SOL    HW2 8637   0.339   4.010   0.224  0.7249  0.1793 -0.6520
 2940SOL     OW 8638   0.730   1.105   0.593 -0.4917 -0.0772  0.3196
 2940SOL    HW1 8639   0.662   1.120   0.521  0.0565 -1.1489 -0.4449
 2940SOL    HW2 8640   0.810   1.058   0.555 -0.2675 -0.8411  1.6554
 2941SOL     OW 8641   5.000   0.174   3.367  0.1911 -0.3532 -0.4213
 2941SOL    HW1 8642   5.013   0.121   3.451 -0.4533  1.1072  0.6321
 2941SOL    HW2 8643   4.955   0.260   3.388  2.8244  1.4983 -1.7998
 2942SOL     OW 8644   2.522   1.868   1.337  0.1954 -0.4082 -0.5331
 2942SOL    HW1 8645   2.532   1.781   1.386 -0.0187 -0.8283 -1.2203
 2942SOL    HW2 8646   2.596   1.876   1.270 -1.2379 -1.2916 -2.2920
 2943SOL     OW 8647   0.872   0.699   0.464  0.2946 -0.3954  0.5131
 2943SOL    HW1 8648   0.791   0.752   0.487 -0.0762 -1.2356  1.2232
 2943SOL    HW2 8649   0.951   0.735   0.515 -0.0404 -0.7717  1.3179
 2944SOL     OW 8650   3.624   1.547   0.896 -0.0096  0.2540  0.5309
 2944SOL    HW1 8651   3.650   1.623   0.835  1.8766  1.3257  2.5324
 2944SOL    HW2 8652   3.527   1.556   0.920 -0.8785 -0.2917 -2.3001
 2945SOL     OW 8653   2.626   0.513   3.456  0.2703 -0.9791 -0.4452
 2945SOL    HW1 8654   2.676   0.433   3.422 -1.9708 -2.4039 -0.5654
 2945SOL    HW2 8655   2.591   0.565   3.378 -1.1405 -1.8044 -0.3923
 2946SOL     OW 8656   4.269   0.650   1.792 -0.2281  0.1072  0.4130
 2946SOL    HW1 8657   4.339   0.688   1.853  0.8866 -0.7046 -0.3254
 2946SOL    HW2 8658   4.302   0.653   1.697 -2.1342  1.8685 -0.2838
 2947SOL     OW 8659   3.098   4.936   2.428  0.2056 -0.1211 -0.2684
 2947SOL    HW1 8660   3.189   4.977   2.427  0.4287 -0.5789  0.5381
 2947SOL    HW2 8661   3.054   4.954   2.515 -0.0831 -0.7481 -0.2761
 2948SOL     OW 8662   2.492   0.095   4.805 -0.4120 -0.4581 -0.5721
 2948SOL    HW1 8663   2.510   0.192   4.793 -1.5941  0.0001  0.8930
 2948SOL    HW2 8664   2.561   0.055   4.866 -1.3393  0.1026  0.9114
 2949SOL     OW 8665   2.168   3.836   4.658 -0.4958 -0.0854  0.7145
 2949SOL    HW1 8666   2.143   3.814   4.753 -2.3557  1.4395  0.6380
 2949SOL    HW2 8667   2.087   3.828   4.600  0.5488 -0.6509 -0.7118
 2950SOL     OW 8668   1.531   2.939   4.511  0.0306  0.5574 -0.2986
 2950SOL    HW1 8669   1.491   3.011   4.568 -1.6119  0.3178 -1.0643
 2950SOL    HW2 8670   1.482   2.853   4.527 -0.0367  0.3375 -1.5463
 2951SOL     OW 8671   3.865   4.789   3.220  0.3454  0.3768  0.0302
 2951SOL    HW1 8672   3.785   4.774   3.162  0.2970 -1.6607  0.5634
 2951SOL    HW2 8673   3.857   4.734   3.302  2.3443  0.0581  0.0512
 2952SOL     OW 8674   2.924   2.293   4.712 -0.0439  0.0825 -0.2118
 2952SOL    HW1 8675   2.911   2.387   4.681 -1.2894 -0.3008 -0.9457
 2952SOL    HW2 8676   2.965   2.293   4.803 -0.0033  1.3270 -0.2121
 2953SOL     OW 8677   3.233   0.266   2.056 -0.3827  0.6694 -0.3343
 2953SOL    HW1 8678   3.162   0.206   2.020  0.6738 -0.9900  0.1978
 2953SOL    HW2 8679   3.323   0.228   2.032  0.4461 -0.6298  3.9137
 2954SOL     OW 8680   0.219   0.141   2.158 -0.1796 -0.4750 -0.6768
 2954SOL    HW1 8681   0.214   0.160   2.059  1.4898  1.0985 -0.5087
 2954SOL    HW2 8682   0.306   0.175   2.194 -0.7619 -1.0188  1.3593
 2955SOL     OW 8683   4.014   2.254   3.681  0.2669  0.2639  0.0432
 2955SOL    HW1 8684   4.012   2.272   3.582 -0.6267  0.3372  0.0668
 2955SOL    HW2 8685   3.921   2.240   3.714  0.6367 -0.7899  0.6947
 2956SOL     OW 8686   3.430   0.753   4.196 -0.1305  0.7294  0.6528
 2956SOL    HW1 8687   3.495   0.765   4.272 -0.5474 -1.2875  1.3941
 2956SOL    HW2 8688   3.343   0.795   4.220 -0.5063 -0.5696  1.6819
 2957SOL     OW 8689   4.991   4.059   0.360 -0.6131  0.1315 -0.2868
 2957SOL    HW1 8690   5.068   4.001   0.334 -1.9506 -0.8194 -2.4206
 2957SOL    HW2 8691   4.922   4.003   0.408 -0.4315  0.7611  0.7485
 2958SOL     OW 8692   0.550   2.166   1.592 -0.3913 -0.1668  0.0203
 2958SOL    HW1 8693   0.639   2.208   1.574  0.4792 -1.5124  1.0311
 2958SOL    HW2 8694   0.556   2.067   1.581 -1.9436 -0.2311 -0.5265
 2959SOL     OW 8695   0.661   4.613   2.193 -0.0165 -0.7062 -0.0382
 2959SOL    HW1 8696   0.638   4.517   2.176  0.1842 -0.6022 -0.9379
 2959SOL    HW2 8697   0.629   4.670   2.117  2.0630 -0.4054 -0.7558
 2960SOL     OW 8698   0.865   3.602   1.831  0.7284  0.4689 -0.4408
 2960SOL    HW1 8699   0.911   3.513   1.833 -2.2479 -1.1889  0.5397
 2960SOL    HW2 8700   0.843   3.629   1.925 -0.1137  1.2900 -0.8653
 2961SOL     OW 8701   0.350   2.010   2.287  0.2243  0.2417 -0.6287
 2961SOL    HW1 8702   0.277   2.057   2.236  1.4646  0.6382 -2.1447
 2961SOL    HW2 8703   0.348   2.039   2.382 -1.9028 -0.1599 -0.4975
 2962SOL     OW 8704   2.678   0.752   1.760 -0.1385 -0.3072 -0.0741
 2962SOL    HW1 8705   2.585   0.764   1.794  0.1290  1.4845  0.1478
 2962SOL    HW2 8706   2.688   0.802   1.674  0.9070  0.4581  0.4697
 2963SOL     OW 8707   3.074   1.065   3.542  0.2970 -0.3447 -0.4974
 2963SOL    HW1 8708   3.052   1.112   3.456  0.3578 -2.0241 -1.4878
 2963SOL    HW2 8709   3.054   1.125   3.619  1.9530  1.9082 -1.7103
 2964SOL     OW 8710   0.966   4.170   4.392 -0.4251 -0.2871 -0.0123
 2964SOL    HW1 8711   1.023   4.161   4.473 -0.9478  0.4283  0.4447
 2964SOL    HW2 8712   1.016   4.222   4.322  0.4576 -1.8473 -0.5939
 2965SOL     OW 8713   0.995   2.158   4.634 -0.0438 -0.2593 -0.2386
 2965SOL    HW1 8714   1.016   2.255   4.628  2.0773 -0.6238  0.4944
 2965SOL    HW2 8715   0.978   2.133   4.729 -1.5676 -0.4386 -0.5416
 2966SOL     OW 8716   0.454   2.042   3.802 -0.8738 -0.3178  0.3029
 2966SOL    HW1 8717   0.471   1.973   3.873 -3.2825 -1.5532 -0.2184
 2966SOL    HW2 8718   0.405   2.119   3.842  3.1094  1.9707  1.2218
 2967SOL     OW 8719   1.764   1.541   3.450 -0.3463 -0.3945 -0.0806
 2967SOL    HW1 8720   1.740   1.591   3.533 -1.7292 -0.3406 -0.4999
 2967SOL    HW2 8721   1.862   1.520   3.452 -0.2443  0.0808  1.2972
 2968SOL     OW 8722   1.816   1.328   3.833 -0.0177 -0.1190 -0.0524
 2968SOL    HW1 8723   1.819   1.343   3.931  1.5475 -2.0879  0.2442
 2968SOL    HW2 8724   1.884   1.386   3.788 -0.6613  0.7019 -0.0054
 2969SOL     OW 8725   4.120   2.958   0.032  0.9749  0.1532  0.9282
 2969SOL    HW1 8726   4.040   2.931   0.086  1.3910 -0.5864  1.1869
 2969SOL    HW2 8727   4.195   2.895   0.050  1.1397 -0.0894 -0.5054
 2970SOL     OW 8728   3.894   0.241   0.432  0.3605 -0.6846  0.2746
 2970SOL    HW1 8729   3.844   0.158   0.453  0.4005 -0.5760  0.8164
 2970SOL    HW2 8730   3.986   0.236   0.471  0.5343 -0.5956 -0.1182
 2971SOL     OW 8731   3.436   4.080   2.334 -0.7258  0.4891 -0.0947
 2971SOL    HW1 8732   3.434   4.158   2.271 -1.9810  0.3038 -0.3064
 2971SOL    HW2 8733   3.414   4.112   2.426  0.5377  0.6623  0.1688
 2972SOL     OW 8734   3.233   3.758   2.773  0.4815 -0.1273  0.6294
 2972SOL    HW1 8735   3.201   3.666   2.751 -0.3803  0.2443  0.3095
 2972SOL    HW2 8736   3.263   3.803   2.690  0.2002  0.1477  0.6769
 2973SOL     OW 8737   4.158   3.411   4.257 -0.1336  0.2553  0.0239
 2973SOL    HW1 8738   4.187   3.415   4.352 -1.3347 -0.9419  0.4797
 2973SOL    HW2 8739   4.218   3.467   4.201 -1.0489  3.2699  1.8519
 2974SOL     OW 8740   0.546   4.568   0.979  0.2368 -0.2796 -0.0966
 2974SOL    HW1 8741   0.474   4.499   0.988 -0.6146  0.6025  0.0539
 2974SOL    HW2 8742   0.568   4.581   0.883  0.2624 -0.6238 -0.1386
 2975SOL     OW 8743   0.891   2.108   1.488 -0.1039 -0.2777  0.5285
 2975SOL    HW1 8744   0.880   2.192   1.540 -1.8247 -1.3451  2.0192
 2975SOL    HW2 8745   0.827   2.108   1.411 -3.0046 -1.6983  2.7144
 2976SOL     OW 8746   2.499   4.960   4.163 -0.2944 -0.2391 -0.0656
 2976SOL    HW1 8747   2.448   4.946   4.248  1.0558 -0.5434  0.7361
 2976SOL    HW2 8748   2.488   5.055   4.133  0.3916  0.3120  1.2967
 2977SOL     OW 8749   1.901   0.048   2.238  0.3390 -0.1455  0.1801
 2977SOL    HW1 8750   1.825  -0.010   2.270 -0.8333 -0.4920 -2.9043
 2977SOL    HW2 8751   1.891   0.140   2.276 -0.4146 -0.7405  1.4905
 2978SOL     OW 8752   0.362   4.771   3.795  0.5357 -0.1456 -0.3041
 2978SOL    HW1 8753   0.450   4.746   3.833  0.4743  0.9906  0.6357
 2978SOL    HW2 8754   0.372   4.855   3.741  0.1298 -0.3058 -0.6331
 2979SOL     OW 8755   3.809   3.753   2.648 -0.2366 -0.3093  0.0968
 2979SOL    HW1 8756   3.717   3.767   2.612  0.2376 -0.5671 -1.2729
 2979SOL    HW2 8757   3.841   3.838   2.690 -0.5161  0.2630 -0.8096
 2980SOL     OW 8758   2.230   0.153   1.982 -0.1386 -0.9479  0.2294
 2980SOL    HW1 8759   2.219   0.080   1.914  2.0228 -1.6906  0.5945
 2980SOL    HW2 8760   2.278   0.230   1.941  0.4121 -1.0492  0.6761
 2981SOL     OW 8761   0.999   3.790   1.681 -0.3649  0.3931 -0.3168
 2981SOL    HW1 8762   0.956   3.880   1.672  0.4870  0.9036  0.4897
 2981SOL    HW2 8763   0.941   3.730   1.735  0.1137  1.2290  1.1862
 2982SOL     OW 8764   1.082   2.713   2.825 -0.1267  0.2673  0.2693
 2982SOL    HW1 8765   0.985   2.725   2.803 -0.5847  0.6605  2.3251
 2982SOL    HW2 8766   1.110   2.620   2.802 -1.5340 -0.4861  1.4485
 2983SOL     OW 8767   3.468   2.721   4.330 -0.1748  0.3882 -0.6617
 2983SOL    HW1 8768   3.422   2.648   4.279  0.8239 -0.8277  0.1039
 2983SOL    HW2 8769   3.497   2.793   4.267 -0.9299 -0.0086 -1.4828
 2984SOL     OW 8770   2.372   4.758   1.629  0.5360 -0.2853  0.1459
 2984SOL    HW1 8771   2.273   4.765   1.616  0.4850 -1.1302  0.0423
 2984SOL    HW2 8772   2.402   4.827   1.695 -0.4236 -1.2834  1.6766
 2985SOL     OW 8773   3.938   1.692   0.664 -0.1907  0.0732  0.0789
 2985SOL    HW1 8774   3.987   1.612   0.628 -1.6928 -0.5734 -0.6126
 2985SOL    HW2 8775   3.968   1.774   0.615 -0.1214 -0.3814 -0.6600
 2986SOL     OW 8776   1.816   4.472   4.959  0.1401  0.0919  0.0223
 2986SOL    HW1 8777   1.718   4.487   4.971  0.0149  0.7809 -1.6404
 2986SOL    HW2 8778   1.832   4.375   4.940 -0.0262 -0.3162  1.7767
 2987SOL     OW 8779   3.999   4.811   1.331  0.1893 -0.3042  0.3261
 2987SOL    HW1 8780   3.938   4.854   1.265  1.3306  1.8990  0.6100
 2987SOL    HW2 8781   4.045   4.733   1.289 -1.0423 -0.5605 -0.6098
 2988SOL     OW 8782   3.281   2.927   3.545 -0.3183 -0.2837  0.0923
 2988SOL    HW1 8783   3.299   3.025   3.552  1.8195 -0.4610 -1.6038
 2988SOL    HW2 8784   3.240   2.907   3.456  0.3504 -1.0328 -0.0617
 2989SOL     OW 8785   0.018   3.875   2.141 -0.4190  0.2778 -0.0140
 2989SOL    HW1 8786  -0.001   3.942   2.069 -0.6016  0.2102 -0.0296
 2989SOL    HW2 8787  -0.032   3.901   2.224  0.1847  0.6351  0.2469
 2990SOL     OW 8788   4.866   2.600   1.837  0.4695 -0.3769  0.4381
 2990SOL    HW1 8789   4.850   2.672   1.769 -0.7514 -0.3647  0.7147
 2990SOL    HW2 8790   4.962   2.603   1.866 -0.0091  2.6178  2.0982
 2991SOL     OW 8791   4.314   3.830   2.857  0.0804  0.2076  0.5042
 2991SOL    HW1 8792   4.262   3.812   2.941 -0.4828 -0.8626 -0.0482
 2991SOL    HW2 8793   4.306   3.751   2.796  0.3763  1.0220 -0.6180
 2992SOL     OW 8794   1.651   0.868   4.473 -0.5289  0.0960  0.0814
 2992SOL    HW1 8795   1.654   0.855   4.572  2.0604  0.1389  0.0825
 2992SOL    HW2 8796   1.700   0.953   4.449  0.7857 -0.9935 -1.3362
 2993SOL     OW 8797   4.323   0.221   4.464  0.0630  0.8554  0.7612
 2993SOL    HW1 8798   4.265   0.145   4.435  0.9254  0.3978  0.1880
 2993SOL    HW2 8799   4.351   0.275   4.385  1.6970  0.1298  0.7914
 2994SOL     OW 8800   0.620   1.576   3.755 -0.8749  0.1013  0.2580
 2994SOL    HW1 8801   0.704   1.586   3.701 -1.1592 -3.2777 -1.0970
 2994SOL    HW2 8802   0.545   1.624   3.709 -0.0949  1.5020  0.4186
 2995SOL     OW 8803   3.420   5.016   4.131 -0.2646  0.3017  0.2796
 2995SOL    HW1 8804   3.509   4.976   4.112  0.0450  0.6642  0.9310
 2995SOL    HW2 8805   3.370   4.959   4.197 -1.7948 -1.5620 -2.3092
 2996SOL     OW 8806   2.528   1.241   1.852 -0.0843 -0.3989  0.1241
 2996SOL    HW1 8807   2.598   1.186   1.897  0.8024  0.1462 -0.5695
 2996SOL    HW2 8808   2.448   1.184   1.834  0.6047 -1.3187 -0.0840
 2997SOL     OW 8809   4.298   1.815   1.115  0.0670  0.9325  0.3231
 2997SOL    HW1 8810   4.382   1.810   1.060 -0.0645 -1.3491  0.2623
 2997SOL    HW2 8811   4.243   1.892   1.083  2.0711  2.4460  0.3120
 2998SOL     OW 8812   0.764   3.473   2.463  0.3628  0.4054  0.1339
 2998SOL    HW1 8813   0.726   3.471   2.555  0.7269  0.6324  0.2928
 2998SOL    HW2 8814   0.780   3.567   2.435  0.3501  0.3329 -0.1200
 2999SOL     OW 8815   4.925   4.193   1.472 -0.3774  0.3702  0.3921
 2999SOL    HW1 8816   4.980   4.254   1.529 -1.2802  1.5775  0.0123
 2999SOL    HW2 8817   4.830   4.195   1.503 -0.3519 -1.1884  0.6354
 3000SOL     OW 8818   4.892   0.053   2.175 -0.1833 -0.3722 -0.2849
 3000SOL    HW1 8819   4.965   0.077   2.238  0.3344  1.9839 -1.6588
 3000SOL    HW2 8820   4.893   0.116   2.097 -3.3273 -0.5947 -0.6461
 3001SOL     OW 8821   1.694   0.595   0.461 -0.3194  0.6819 -0.3763
 3001SOL    HW1 8822   1.734   0.581   0.370 -0.4381  0.6817 -0.4296
 3001SOL    HW2 8823   1.663   0.507   0.497  1.3529  0.4034  0.4378
 3002SOL     OW 8824   1.007   2.056   2.237  0.0233 -0.2815 -0.2852
 3002SOL    HW1 8825   0.936   2.099   2.182  2.0923  2.2196 -1.2010
 3002SOL    HW2 8826   0.987   2.070   2.334 -1.8391 -1.6349 -0.4197
 3003SOL     OW 8827   3.828   0.215   2.650 -0.5714 -0.4833  0.3792
 3003SOL    HW1 8828   3.766   0.193   2.575 -2.5571  1.8190  1.2270
 3003SOL    HW2 8829   3.829   0.140   2.716 -0.5846 -1.5473 -0.7999
 3004SOL     OW 8830   0.431   0.895   0.382 -0.3140 -0.3739 -0.5622
 3004SOL    HW1 8831   0.491   0.857   0.453  0.0460 -0.4123 -0.8876
 3004SOL    HW2 8832   0.368   0.825   0.350 -0.6579 -0.2855 -0.0922
 3005SOL     OW 8833   3.470   1.020   0.221 -0.1617  0.0933 -0.4197
 3005SOL    HW1 8834   3.444   1.115   0.204  1.0298  0.6063  0.4249
 3005SOL    HW2 8835   3.439   0.993   0.312  0.3220 -0.0067 -0.2814
 3006SOL     OW 8836   2.975   3.032   3.480 -0.3432  0.1277 -0.2877
 3006SOL    HW1 8837   3.054   3.091   3.494 -0.0069 -0.0160 -1.4346
 3006SOL    HW2 8838   2.891   3.086   3.490 -0.1292  0.1951  1.3268
 3007SOL     OW 8839   0.991   4.257   3.972 -0.3353 -0.2605  0.4502
 3007SOL    HW1 8840   1.004   4.323   3.899  1.8047 -1.3109 -0.2032
 3007SOL    HW2 8841   0.948   4.301   4.051 -2.0694  1.0508 -1.1652
 3008SOL     OW 8842   3.445   3.191   2.098 -0.3315 -0.2921 -0.4104
 3008SOL    HW1 8843   3.395   3.246   2.031  0.7667 -0.9063 -1.7835
 3008SOL    HW2 8844   3.482   3.110   2.053  1.2570 -0.2320  0.7177
 3009SOL     OW 8845   1.063   2.758   0.741  0.6059 -0.5288 -0.0953
 3009SOL    HW1 8846   1.075   2.758   0.642  0.5484  1.8842 -0.1754
 3009SOL    HW2 8847   0.981   2.809   0.765 -0.2764 -2.4176  1.1772
 3010SOL     OW 8848   3.913   3.661   1.625 -0.7563 -0.1305  0.5033
 3010SOL    HW1 8849   3.861   3.709   1.697 -1.3867  0.2164 -0.1634
 3010SOL    HW2 8850   4.011   3.670   1.643 -0.9054  0.1037  1.2269
 3011SOL     OW 8851   3.947   2.246   0.191 -1.0420  0.1752 -0.3060
 3011SOL    HW1 8852   4.022   2.263   0.255  1.8789 -0.3680 -3.3014
 3011SOL    HW2 8853   3.903   2.333   0.168  2.3657  1.5578 -2.4698
 3012SOL     OW 8854   2.475   0.987   3.213 -0.2199 -0.0011 -0.0774
 3012SOL    HW1 8855   2.441   0.967   3.305 -1.7907 -0.0424 -0.6271
 3012SOL    HW2 8856   2.522   1.075   3.213  1.1552 -0.6846  1.0500
 3013SOL     OW 8857   0.101   3.171   3.621 -0.3251  0.1981 -0.5453
 3013SOL    HW1 8858   0.114   3.140   3.527 -0.0944  0.7936 -0.7101
 3013SOL    HW2 8859   0.097   3.270   3.623  1.0194  0.2498  0.2444
 3014SOL     OW 8860   2.713   2.157   2.659  0.6963  0.3660  0.1140
 3014SOL    HW1 8861   2.669   2.157   2.569 -0.3408  1.2554  0.5983
 3014SOL    HW2 8862   2.747   2.249   2.679  0.3192  0.3331  0.9170
 3015SOL     OW 8863   2.339   1.108   0.500 -0.1762 -0.4680 -0.2182
 3015SOL    HW1 8864   2.414   1.046   0.476  0.5961  0.3324  0.1027
 3015SOL    HW2 8865   2.376   1.197   0.526 -1.2841  0.2069 -0.8865
 3016SOL     OW 8866   2.446   0.439   1.514  0.0617 -0.1184 -0.3965
 3016SOL    HW1 8867   2.512   0.477   1.578 -0.5283 -0.1957  0.2575
 3016SOL    HW2 8868   2.355   0.475   1.533 -0.1434 -0.2288 -1.1189
 3017SOL     OW 8869   3.110   3.569   0.598  0.3135 -0.0613  1.1005
 3017SOL    HW1 8870   3.115   3.660   0.637  0.1709  0.3423  0.2086
 3017SOL    HW2 8871   3.101   3.501   0.671 -0.5886  0.7077  1.7277
 3018SOL     OW 8872   4.062   0.231   4.815  0.5190 -0.7681  0.0896
 3018SOL    HW1 8873   4.144   0.242   4.872  1.8583 -2.0214 -1.4792
 3018SOL    HW2 8874   4.071   0.148   4.759 -0.5841  0.5187 -2.1556
 3019SOL     OW 8875   4.942   1.006   1.596  0.4970 -0.3986 -0.3080
 3019SOL    HW1 8876   4.966   1.042   1.687  0.5268 -2.4756  0.5636
 3019SOL    HW2 8877   5.014   0.945   1.564  0.1034 -0.3153 -1.3724
 3020SOL     OW 8878   1.909   3.324   0.595  0.0696  0.6950  0.0001
 3020SOL    HW1 8879   1.940   3.274   0.675 -0.5841  0.9264  0.4041
 3020SOL    HW2 8880   1.983   3.330   0.528  0.2781 -0.4569  0.1135
 3021SOL     OW 8881   3.303   1.079   4.205  0.3858  0.1796 -0.0238
 3021SOL    HW1 8882   3.388   1.120   4.237 -0.1581 -0.1134  1.9181
 3021SOL    HW2 8883   3.231   1.148   4.206  0.1292 -0.0912  0.4179
 3022SOL     OW 8884   4.339   1.615   3.495 -0.7405  0.9950 -0.6426
 3022SOL    HW1 8885   4.418   1.669   3.469  0.0677 -0.0740 -0.4711
 3022SOL    HW2 8886   4.331   1.535   3.435 -1.4652  0.8880 -0.4214
 3023SOL     OW 8887   1.172   1.098   1.751 -0.0913  0.3802  0.2711
 3023SOL    HW1 8888   1.179   1.012   1.803 -0.4820  1.1386  1.6119
 3023SOL    HW2 8889   1.224   1.089   1.667 -0.6210 -1.3985  0.0757
 3024SOL     OW 8890   2.490   3.331   1.501  0.5010 -0.1951 -0.2172
 3024SOL    HW1 8891   2.466   3.415   1.452  0.5230 -0.0959 -0.0562
 3024SOL    HW2 8892   2.585   3.307   1.480  0.7244  0.2164  0.3082
 3025SOL     OW 8893   2.562   3.116   4.184  0.4417 -0.1283 -0.4331
 3025SOL    HW1 8894   2.517   3.189   4.132 -2.3720 -1.3336  0.1595
 3025SOL    HW2 8895   2.605   3.051   4.121  0.1994  0.3259 -1.0730
 3026SOL     OW 8896   2.459   3.577   1.339  0.3465 -0.3782 -0.3505
 3026SOL    HW1 8897   2.531   3.603   1.276  0.5950  0.0945  0.1212
 3026SOL    HW2 8898   2.382   3.640   1.330  0.3557 -0.3490 -0.2300
 3027SOL     OW 8899   1.179   0.130   3.575  0.2744 -0.7072  0.3458
 3027SOL    HW1 8900   1.271   0.099   3.597  0.0019 -1.8936 -0.0927
 3027SOL    HW2 8901   1.128   0.147   3.659 -0.1002 -3.1614  0.7014
 3028SOL     OW 8902   2.510   3.521   0.034  0.2249 -0.1060  0.0056
 3028SOL    HW1 8903   2.594   3.479   0.068 -0.2375 -2.3193 -1.3845
 3028SOL    HW2 8904   2.455   3.452  -0.014 -1.7729  1.5832 -0.2873
 3029SOL     OW 8905   3.579   3.537   3.477  0.2174 -0.0281 -0.0140
 3029SOL    HW1 8906   3.550   3.442   3.466  1.3081 -0.4747  0.8066
 3029SOL    HW2 8907   3.530   3.594   3.411 -0.7042 -1.0949 -0.2918
 3030SOL     OW 8908   0.635   2.864   4.184 -0.3425  0.1112  0.7638
 3030SOL    HW1 8909   0.687   2.783   4.212  0.6319  0.2366 -0.5940
 3030SOL    HW2 8910   0.674   2.901   4.100 -2.3432  0.5268 -0.0166
 3031SOL     OW 8911   2.214   3.476   2.211  0.0634  0.3857 -0.1068
 3031SOL    HW1 8912   2.171   3.565   2.196  1.2075  0.9123 -0.3452
 3031SOL    HW2 8913   2.243   3.468   2.306 -0.4016  0.1025  0.0119
 3032SOL     OW 8914   4.993   2.955   1.772  0.1502 -0.7673 -0.1649
 3032SOL    HW1 8915   5.018   2.935   1.867  0.6955 -1.8128 -0.5123
 3032SOL    HW2 8916   5.035   3.041   1.744  0.1992 -0.5830  0.4546
 3033SOL     OW 8917   0.452   0.245   2.242 -0.1466  0.0349 -0.3034
 3033SOL    HW1 8918   0.435   0.338   2.274 -0.3978 -0.0527 -0.1741
 3033SOL    HW2 8919   0.497   0.193   2.314 -0.5272 -0.1046 -0.1628
 3034SOL     OW 8920   4.503   2.745   2.949 -0.4141 -0.1294 -0.0341
 3034SOL    HW1 8921   4.506   2.646   2.967  0.9999 -0.0595  0.1905
 3034SOL    HW2 8922   4.420   2.783   2.990 -0.9228 -1.1943 -0.0203
 3035SOL     OW 8923   2.812   1.805   4.513  0.1642  0.2225  0.1228
 3035SOL    HW1 8924   2.794   1.837   4.420 -0.2819  0.4689  0.2893
 3035SOL    HW2 8925   2.739   1.742   4.540  0.8501 -0.6676 -0.0753
 3036SOL     OW 8926   2.768   0.592   0.800 -0.2564 -0.0205  0.6295
 3036SOL    HW1 8927   2.789   0.495   0.794 -0.3865  0.0209 -0.8354
 3036SOL    HW2 8928   2.845   0.645   0.765 -0.2352  0.4089  1.3034
 3037SOL     OW 8929   3.471   1.458   4.594 -0.3943 -0.4838  0.3345
 3037SOL    HW1 8930   3.425   1.372   4.618 -0.2795 -0.3658  1.0030
 3037SOL    HW2 8931   3.403   1.528   4.575 -0.5017 -0.3615  1.1330
 3038SOL     OW 8932   2.620   1.761   1.773 -0.0509  0.6531 -0.4629
 3038SOL    HW1 8933   2.637   1.663   1.783 -0.2196  0.8076  1.8945
 3038SOL    HW2 8934   2.545   1.775   1.709 -0.6519 -0.8158 -0.1214
 3039SOL     OW 8935   3.817   3.405   4.982  0.7179  0.0661 -0.1195
 3039SOL    HW1 8936   3.869   3.479   5.025  1.3567 -0.4063 -0.0589
 3039SOL    HW2 8937   3.796   3.336   5.051 -1.8887  1.2455  0.3606
 3040SOL     OW 8938   3.667   2.310   4.592 -0.3852  0.0635 -0.3506
 3040SOL    HW1 8939   3.676   2.373   4.669 -0.7068 -0.3617  0.0414
 3040SOL    HW2 8940   3.752   2.310   4.539  0.6270 -1.1007  1.1547
 3041SOL     OW 8941   0.984   3.346   1.866 -0.3842 -0.1365  0.2933
 3041SOL    HW1 8942   0.944   3.293   1.940  0.7652 -0.0384  1.0268
 3041SOL    HW2 8943   1.048   3.289   1.814 -1.1676 -0.1980 -0.6198
 3042SOL     OW 8944   1.742   0.803   0.079  0.2841 -0.3402  0.2456
 3042SOL    HW1 8945   1.817   0.757   0.126  0.9945  0.7121  0.1643
 3042SOL    HW2 8946   1.777   0.848  -0.004 -0.4233  0.1915  0.2262
 3043SOL     OW 8947   3.198   4.162   1.082 -0.6121  0.2664 -0.4339
 3043SOL    HW1 8948   3.122   4.228   1.078  0.2064  1.3378  0.9979
 3043SOL    HW2 8949   3.270   4.189   1.018 -0.6492  0.2565 -0.4801
 3044SOL     OW 8950   4.225   3.060   3.552 -0.0615  0.4888  0.1004
 3044SOL    HW1 8951   4.229   3.129   3.624  0.3919  0.8929 -0.3024
 3044SOL    HW2 8952   4.310   3.006   3.552 -0.9089 -0.9365  1.2314
 3045SOL     OW 8953   0.841   0.540   0.013  0.4719  0.0114  0.2271
 3045SOL    HW1 8954   0.881   0.559   0.103  0.9105  1.6267 -0.2775
 3045SOL    HW2 8955   0.765   0.602  -0.004 -0.3588 -1.0593 -0.0591
 3046SOL     OW 8956   2.182   2.504   0.515 -0.3989  0.1941 -0.1781
 3046SOL    HW1 8957   2.170   2.470   0.422 -0.3829  0.6932 -0.3672
 3046SOL    HW2 8958   2.101   2.481   0.570 -0.1631 -0.5978 -0.1574
 3047SOL     OW 8959   4.318   1.974   1.332  0.1045  0.2076 -0.2319
 3047SOL    HW1 8960   4.302   1.879   1.305  2.7062  0.3340 -2.5514
 3047SOL    HW2 8961   4.235   2.028   1.315 -1.5750 -1.6085  1.5457
 3048SOL     OW 8962   0.149   4.394   1.908 -0.6292  0.2740 -0.2130
 3048SOL    HW1 8963   0.081   4.456   1.869 -1.5537  0.1166  1.1049
 3048SOL    HW2 8964   0.146   4.399   2.008 -0.3973 -1.5194 -0.0779
 3049SOL     OW 8965   0.091   1.640   3.341 -0.0022 -0.1653  0.1205
 3049SOL    HW1 8966   0.167   1.603   3.395 -0.8712  0.0675  1.5660
 3049SOL    HW2 8967   0.028   1.566   3.317  0.1837 -0.2083 -0.2322
 3050SOL     OW 8968   1.184   3.882   1.281 -0.2005 -0.0145  0.4753
 3050SOL    HW1 8969   1.209   3.907   1.187 -1.2290 -0.6814  0.0088
 3050SOL    HW2 8970   1.177   3.783   1.288  0.5158 -0.0037  1.4377
 3051SOL     OW 8971   0.381   4.749   4.382 -0.1668  0.4089  0.0815
 3051SOL    HW1 8972   0.435   4.666   4.368  1.0101  1.4414 -1.9936
 3051SOL    HW2 8973   0.437   4.819   4.424 -0.1034  1.1830 -1.2181
 3052SOL     OW 8974   1.352   0.790   3.338  0.1514  0.2063 -0.8611
 3052SOL    HW1 8975   1.342   0.889   3.325 -0.6717  0.3033  0.3837
 3052SOL    HW2 8976   1.265   0.751   3.369  0.7666 -0.7326 -0.2519
 3053SOL     OW 8977   2.597   3.802   2.760  0.4482  0.1750  0.4084
 3053SOL    HW1 8978   2.682   3.840   2.726  0.4031  0.0752  0.1758
 3053SOL    HW2 8979   2.593   3.809   2.860  1.7947 -1.9388  0.6849
 3054SOL     OW 8980   1.962   3.877   2.412  0.3959 -0.1581  0.1989
 3054SOL    HW1 8981   1.927   3.965   2.381  1.9388  0.5034  0.2629
 3054SOL    HW2 8982   1.981   3.819   2.332 -0.2037 -0.2798  0.1392
 3055SOL     OW 8983   3.767   0.761   4.367 -0.2802 -0.3372 -0.2243
 3055SOL    HW1 8984   3.693   0.762   4.434 -0.9068 -1.1139 -0.8786
 3055SOL    HW2 8985   3.852   0.731   4.410 -0.2404  0.8884  0.6142
 3056SOL     OW 8986   3.487   3.278   4.498  0.0738 -0.6498 -0.2047
 3056SOL    HW1 8987   3.519   3.331   4.419  0.2926  0.7807  0.8070
 3056SOL    HW2 8988   3.403   3.230   4.474 -0.1692  0.2076 -1.1544
 3057SOL     OW 8989   0.865   3.921   0.685  0.0345  0.0520 -0.0870
 3057SOL    HW1 8990   0.774   3.954   0.661 -0.2452 -1.7160 -1.6918
 3057SOL    HW2 8991   0.877   3.924   0.785 -1.1698  1.7481  0.0435
 3058SOL     OW 8992   2.131   4.365   4.819 -0.2473  0.0467 -0.5655
 3058SOL    HW1 8993   2.191   4.286   4.805 -0.2935  0.0327 -0.6895
 3058SOL    HW2 8994   2.037   4.332   4.834  0.0667 -0.0330  1.4898
 3059SOL     OW 8995   2.919   3.604   1.060  0.8786 -0.1162  0.0988
 3059SOL    HW1 8996   2.987   3.671   1.089  2.1971 -0.8579 -1.1662
 3059SOL    HW2 8997   2.832   3.624   1.106  1.4412  1.9323  0.4063
 3060SOL     OW 8998   3.943   3.390   3.271  0.4783  0.0082  0.0308
 3060SOL    HW1 8999   3.854   3.427   3.242 -0.7656 -1.6193  1.5626
 3060SOL    HW2 9000   3.983   3.336   3.197 -0.6784 -0.7153 -0.0909
 3061SOL     OW 9001   4.307   1.940   0.601 -0.2654  0.2954 -0.1870
 3061SOL    HW1 9002   4.293   1.913   0.697  1.1511  1.0541  0.2589
 3061SOL    HW2 9003   4.400   1.916   0.573  0.0768  2.0265 -0.6750
 3062SOL     OW 9004   1.996   3.668   2.584 -0.8261  0.8644  0.6080
 3062SOL    HW1 9005   1.961   3.582   2.547  2.5339  0.0825 -1.1953
 3062SOL    HW2 9006   1.982   3.741   2.517  0.0344  0.7452  0.2805
 3063SOL     OW 9007   0.024   0.386   2.422 -0.2046 -0.3927  0.1432
 3063SOL    HW1 9008  -0.035   0.466   2.414  1.2336  0.5645 -1.5641
 3063SOL    HW2 9009   0.109   0.411   2.467 -0.1504 -1.2283  0.5320
 3064SOL     OW 9010   2.858   0.361   1.820 -0.4450  0.1072  0.2120
 3064SOL    HW1 9011   2.910   0.328   1.742  0.0827  1.5281 -0.0654
 3064SOL    HW2 9012   2.902   0.442   1.858 -1.9843  0.8684  0.4830
 3065SOL     OW 9013   0.935   2.740   3.930  0.1701 -0.1986 -0.3671
 3065SOL    HW1 9014   0.982   2.756   4.017  0.8870  1.4104 -1.0136
 3065SOL    HW2 9015   0.849   2.692   3.947  0.8109 -0.8937  1.1064
 3066SOL     OW 9016   3.062   1.893   3.475  0.4197 -0.3780 -0.5904
 3066SOL    HW1 9017   3.133   1.963   3.474  0.7059 -0.6713 -0.7685
 3066SOL    HW2 9018   3.012   1.897   3.562  1.5698 -1.0993  0.1231
 3067SOL     OW 9019   2.593   0.631   0.563  0.2536  0.2580  0.1234
 3067SOL    HW1 9020   2.599   0.725   0.530  0.1206  0.6607  1.1874
 3067SOL    HW2 9021   2.650   0.621   0.645  1.4742 -0.9984 -0.8286
 3068SOL     OW 9022   4.267   2.582   0.130  0.5208 -0.2865 -0.1187
 3068SOL    HW1 9023   4.282   2.586   0.229  0.0403 -1.8593  0.0430
 3068SOL    HW2 9024   4.258   2.487   0.101 -0.6685  0.1994 -1.4814
 3069SOL     OW 9025   2.550   2.097   2.072 -0.0603 -0.4076  0.3251
 3069SOL    HW1 9026   2.480   2.063   2.008 -0.7650 -1.3975  1.5751
 3069SOL    HW2 9027   2.543   2.047   2.158  0.5208  1.2562  1.3852
 3070SOL     OW 9028   4.327   1.359   1.846  0.2725  0.1076 -0.3238
 3070SOL    HW1 9029   4.227   1.355   1.850  0.3277 -0.7084  0.5808
 3070SOL    HW2 9030   4.364   1.365   1.938  1.1551 -3.1258 -0.3473
 3071SOL     OW 9031   2.593   4.098   3.845  0.4738 -0.2126 -0.2156
 3071SOL    HW1 9032   2.575   4.008   3.886 -1.9583 -0.4774 -1.6694
 3071SOL    HW2 9033   2.541   4.168   3.894 -0.5712 -0.1929 -1.2899
 3072SOL     OW 9034   4.011   4.667   4.613  0.2052 -0.6088  0.3503
 3072SOL    HW1 9035   4.027   4.717   4.528  0.3713  1.5601  1.5812
 3072SOL    HW2 9036   4.098   4.629   4.646  0.9278  1.7907  1.4171
 3073SOL     OW 9037   0.944   0.441   2.739  0.0628  0.1922  0.1030
 3073SOL    HW1 9038   0.987   0.441   2.829 -0.2815 -0.2144  0.2735
 3073SOL    HW2 9039   1.015   0.437   2.668  0.3345  0.5381  0.3540
 3074SOL     OW 9040   2.716   2.684   4.814  0.0002  0.6557 -0.5023
 3074SOL    HW1 9041   2.660   2.743   4.755  0.7328  0.6397 -1.2388
 3074SOL    HW2 9042   2.770   2.622   4.757 -0.5932 -0.6037  0.2572
 3075SOL     OW 9043   3.128   1.937   4.040  0.1129  0.4606 -0.7107
 3075SOL    HW1 9044   3.224   1.918   4.057  0.0262 -0.1252 -0.8636
 3075SOL    HW2 9045   3.080   1.948   4.127 -0.2191 -1.9805 -0.4980
 3076SOL     OW 9046   3.633   4.102   3.220  0.0921 -0.1764  0.0518
 3076SOL    HW1 9047   3.631   4.057   3.310  1.0189  0.6078  0.4853
 3076SOL    HW2 9048   3.727   4.102   3.186 -0.0048  0.8864 -0.2250
 3077SOL     OW 9049   4.338   1.267   0.259 -0.0112 -0.0684  0.0009
 3077SOL    HW1 9050   4.375   1.323   0.333 -0.2727 -0.6693  0.5889
 3077SOL    HW2 9051   4.312   1.327   0.182 -0.7113  0.6770  0.7922
 3078SOL     OW 9052   2.605   0.018   2.161  0.1224 -0.0429  0.1141
 3078SOL    HW1 9053   2.616   0.034   2.259  1.8692 -1.3736  0.1806
 3078SOL    HW2 9054   2.656  -0.063   2.134 -2.4268 -1.2368 -1.4813
 3079SOL     OW 9055   3.206   2.170   1.192  0.3569  0.0539  0.4873
 3079SOL    HW1 9056   3.302   2.156   1.168  0.0688  0.2431 -0.8274
 3079SOL    HW2 9057   3.167   2.084   1.226  0.8620 -0.1408  0.5745
 3080SOL     OW 9058   1.640   1.233   1.475  0.2354 -0.3979 -0.1932
 3080SOL    HW1 9059   1.679   1.144   1.450 -0.0159 -0.2588 -1.1249
 3080SOL    HW2 9060   1.651   1.248   1.573 -3.0039 -3.1312  0.7918
 3081SOL     OW 9061   2.350   1.573   1.842  0.5213 -0.0014 -0.0701
 3081SOL    HW1 9062   2.337   1.654   1.784  1.7328  0.5440  0.3968
 3081SOL    HW2 9063   2.439   1.533   1.824  0.0085 -1.1407 -0.1508
 3082SOL     OW 9064   1.643   4.279   3.144 -0.1281  0.0209  0.4389
 3082SOL    HW1 9065   1.700   4.247   3.219  1.5598  1.1330 -0.3054
 3082SOL    HW2 9066   1.605   4.369   3.166  0.6302  0.4970 -0.1212
 3083SOL     OW 9067   0.163   4.523   1.400  0.8231  0.5530 -0.0655
 3083SOL    HW1 9068   0.211   4.607   1.424 -0.4519  1.2033  0.3344
 3083SOL    HW2 9069   0.204   4.445   1.447  0.3974  1.3413  1.6576
 3084SOL     OW 9070   0.486   1.131   2.699  0.5531 -0.4404 -0.3884
 3084SOL    HW1 9071   0.536   1.188   2.765  0.9136  0.3793 -1.3414
 3084SOL    HW2 9072   0.538   1.126   2.614 -0.1891 -0.9879 -0.8132
 3085SOL     OW 9073   3.404   3.542   3.987 -0.6883 -0.2254  0.1755
 3085SOL    HW1 9074   3.312   3.513   3.962 -0.6728 -0.4029  0.3213
 3085SOL    HW2 9075   3.463   3.541   3.907 -0.5427 -1.1518  0.2810
 3086SOL     OW 9076   2.959   2.153   0.627 -0.0084 -0.4809  0.6002
 3086SOL    HW1 9077   2.865   2.186   0.629  0.0270 -0.3862  1.7709
 3086SOL    HW2 9078   3.021   2.228   0.651  0.2458 -0.8604  1.1568
 3087SOL     OW 9079   4.296   3.581   1.718  0.3887  0.1408  0.0126
 3087SOL    HW1 9080   4.310   3.513   1.647 -0.0259 -0.1484  0.2066
 3087SOL    HW2 9081   4.385   3.610   1.754  0.5780 -0.0624 -0.2902
 3088SOL     OW 9082   4.306   2.330   1.441 -0.7246 -0.9065 -0.2131
 3088SOL    HW1 9083   4.358   2.415   1.438 -1.3054 -0.2455  3.3648
 3088SOL    HW2 9084   4.363   2.254   1.412  1.7141  0.0269  1.7797
 3089SOL     OW 9085   2.713   3.368   0.128  0.0089 -0.2991  0.2076
 3089SOL    HW1 9086   2.787   3.324   0.178 -0.3034 -1.4148 -0.2702
 3089SOL    HW2 9087   2.703   3.324   0.039 -1.5464 -0.5067  0.4600
 3090SOL     OW 9088   2.918   1.406   1.319  0.4769  0.3337  0.0965
 3090SOL    HW1 9089   2.844   1.347   1.288  0.3478 -0.4478  1.7896
 3090SOL    HW2 9090   2.891   1.452   1.403  1.5754  0.7497  0.2404
 3091SOL     OW 9091   2.722   3.122   4.667  0.1048 -0.0450  0.0731
 3091SOL    HW1 9092   2.814   3.109   4.703  0.0218  2.1777  1.2632
 3091SOL    HW2 9093   2.727   3.134   4.568  1.2905  1.2861  0.2559
 3092SOL     OW 9094   0.825   0.362   1.679 -0.5379  0.4451 -0.2824
 3092SOL    HW1 9095   0.747   0.321   1.633 -1.3949  2.4223 -0.7002
 3092SOL    HW2 9096   0.793   0.429   1.746  0.6838 -1.8367  2.8560
 3093SOL     OW 9097   4.332   0.050   2.479 -0.3800  0.0177 -0.0963
 3093SOL    HW1 9098   4.286  -0.006   2.548 -0.4615  0.3834  0.1504
 3093SOL    HW2 9099   4.385   0.122   2.525 -0.9099  0.6241 -0.4323
 3094SOL     OW 9100   4.753   2.576   2.190  0.4359  0.0895  0.2065
 3094SOL    HW1 9101   4.703   2.522   2.123 -0.5201  1.7280 -0.4672
 3094SOL    HW2 9102   4.728   2.672   2.180  2.6870  0.7872  0.8159
 3095SOL     OW 9103   4.477   3.228   4.070 -0.2424  0.3173 -0.3632
 3095SOL    HW1 9104   4.452   3.325   4.067  0.9252  0.6035 -1.5475
 3095SOL    HW2 9105   4.426   3.184   4.144 -0.4244  1.9281  0.5370
 3096SOL     OW 9106   3.875   2.601   3.707 -0.0387 -0.2068  0.1678
 3096SOL    HW1 9107   3.973   2.593   3.687  0.0081 -3.4107  1.0628
 3096SOL    HW2 9108   3.822   2.581   3.625  0.0441  0.5702 -0.0807
 3097SOL     OW 9109   3.645   3.377   2.121 -0.2534 -0.2129 -0.2018
 3097SOL    HW1 9110   3.565   3.317   2.113  0.8322 -1.8652  0.8357
 3097SOL    HW2 9111   3.683   3.395   2.031 -0.2893 -1.5479 -0.4972
 3098SOL     OW 9112   0.350   1.874   0.062  0.1231  0.1567  0.4089
 3098SOL    HW1 9113   0.447   1.851   0.065 -0.0357 -0.5297  0.3810
 3098SOL    HW2 9114   0.298   1.797   0.025 -0.2281  1.1644 -1.3065
 3099SOL     OW 9115   2.175   1.708   3.979 -0.0590 -0.2101  0.3329
 3099SOL    HW1 9116   2.082   1.738   3.959 -0.1966 -0.9120 -0.1161
 3099SOL    HW2 9117   2.213   1.661   3.899  0.1960 -1.0942  0.9552
 3100SOL     OW 9118   4.125   4.275   4.699 -0.2988 -0.3984 -0.0910
 3100SOL    HW1 9119   4.060   4.343   4.731 -0.4019  0.2367 -1.5867
 3100SOL    HW2 9120   4.103   4.250   4.604 -0.0393 -2.2392  0.2992
 3101SOL     OW 9121   0.508   3.113   1.736 -0.0762  0.2276  0.2081
 3101SOL    HW1 9122   0.476   3.091   1.644 -0.7521  0.4020  0.3997
 3101SOL    HW2 9123   0.437   3.163   1.786  1.2935  2.6763 -0.1271
 3102SOL     OW 9124   4.980   1.221   3.724  0.5865  0.0763  0.4362
 3102SOL    HW1 9125   4.912   1.255   3.789  0.2785  1.6388 -0.6435
 3102SOL    HW2 9126   4.936   1.160   3.658  1.0480 -2.1668  2.0873
 3103SOL     OW 9127   1.736   2.042   5.002  0.7200  0.1308 -0.1895
 3103SOL    HW1 9128   1.758   2.131   4.962  0.6756  0.2533  0.0547
 3103SOL    HW2 9129   1.641   2.043   5.035  1.0503  0.3576  0.7843
 3104SOL     OW 9130   2.500   2.583   0.978 -0.6697 -0.8650  0.5373
 3104SOL    HW1 9131   2.541   2.626   1.058  0.4385 -1.6516  0.4166
 3104SOL    HW2 9132   2.526   2.633   0.896  0.8816 -1.8856  0.3642
 3105SOL     OW 9133   3.454   2.428   0.596 -0.0854 -0.1871 -0.1550
 3105SOL    HW1 9134   3.436   2.387   0.686  1.0277  1.1236  0.7050
 3105SOL    HW2 9135   3.540   2.393   0.560 -1.1959 -1.7667 -1.3998
 3106SOL     OW 9136   5.015   1.658   4.601  0.5797 -0.5574  0.1230
 3106SOL    HW1 9137   4.996   1.755   4.582  1.6638 -0.5519 -1.0544
 3106SOL    HW2 9138   4.947   1.601   4.555 -1.0540 -0.3711  2.1237
 3107SOL     OW 9139   2.642   4.082   1.943 -0.4315 -0.1484  0.3139
 3107SOL    HW1 9140   2.701   4.147   1.991  4.4715 -2.1483 -2.2839
 3107SOL    HW2 9141   2.589   4.129   1.873  0.9373  1.3823  0.2711
 3108SOL     OW 9142   4.539   4.882   1.148 -0.0930 -0.1274  0.0221
 3108SOL    HW1 9143   4.637   4.896   1.164 -0.1775  1.1029 -0.3846
 3108SOL    HW2 9144   4.512   4.933   1.066 -0.0804 -4.4521 -3.0054
 3109SOL     OW 9145   3.112   4.760   1.329 -0.0209 -0.2801  0.9256
 3109SOL    HW1 9146   3.087   4.801   1.241 -0.4092 -0.5695  0.9002
 3109SOL    HW2 9147   3.163   4.827   1.383  2.5852 -0.9352 -0.5652
 3110SOL     OW 9148   4.711   5.036   4.700  0.1198 -1.0817 -0.1213
 3110SOL    HW1 9149   4.807   5.062   4.703 -0.3615  0.7376  0.7436
 3110SOL    HW2 9150   4.654   5.116   4.715 -1.5213 -2.2807  0.3822
 3111SOL     OW 9151   2.650   4.944   1.195  0.2507 -0.0298 -0.3826
 3111SOL    HW1 9152   2.565   4.916   1.150  0.3511  0.2577 -0.7527
 3111SOL    HW2 9153   2.719   4.966   1.126  0.5960 -0.1682 -0.0839
 3112SOL     OW 9154   4.376   2.603   1.437 -0.1597  0.6392  0.1341
 3112SOL    HW1 9155   4.428   2.670   1.489  0.5625  0.0892  0.1279
 3112SOL    HW2 9156   4.306   2.650   1.382  0.0691  1.3433  0.4403
 3113SOL     OW 9157   1.529   1.786   1.793  0.3109 -0.0726  0.1463
 3113SOL    HW1 9158   1.550   1.789   1.695  1.3558  0.9156  0.3767
 3113SOL    HW2 9159   1.537   1.878   1.831 -0.1193 -0.4428  1.1631
 3114SOL     OW 9160   0.825   2.017   1.740 -0.2546 -0.4008 -0.0911
 3114SOL    HW1 9161   0.848   2.029   1.643  0.0330 -0.4426 -0.0287
 3114SOL    HW2 9162   0.892   2.066   1.796 -1.2508  0.8724  0.0448
 3115SOL     OW 9163   0.907   4.639   2.355 -0.4033  0.1974 -0.2328
 3115SOL    HW1 9164   0.947   4.560   2.401  0.4106  0.7279 -0.0048
 3115SOL    HW2 9165   0.819   4.614   2.316  0.0305 -0.9339 -0.5172
 3116SOL     OW 9166   4.442   4.951   3.676 -0.3980  0.0782  0.0353
 3116SOL    HW1 9167   4.383   4.962   3.756 -1.1155  1.3471 -0.6298
 3116SOL    HW2 9168   4.505   5.029   3.670  1.5298 -1.3246  0.8276
 3117SOL     OW 9169   3.204   1.818   1.990  0.3222 -0.4330  0.2975
 3117SOL    HW1 9170   3.143   1.870   2.051 -0.8351  0.0716 -1.2321
 3117SOL    HW2 9171   3.196   1.721   2.009 -1.1498 -0.3880 -0.0157
 3118SOL     OW 9172   4.554   0.609   1.418 -0.8471  0.6922 -0.5016
 3118SOL    HW1 9173   4.635   0.628   1.474 -2.4680  0.5850  2.0481
 3118SOL    HW2 9174   4.553   0.513   1.392 -0.7224  0.4072  0.4999
 3119SOL     OW 9175   3.581   4.608   2.692 -0.2829 -0.0887 -0.5155
 3119SOL    HW1 9176   3.560   4.705   2.681  0.7405  0.1611 -0.3589
 3119SOL    HW2 9177   3.521   4.569   2.762  0.8595  1.0131  1.1715
 3120SOL     OW 9178   3.569   3.397   2.527 -0.0379 -0.4910 -0.4294
 3120SOL    HW1 9179   3.618   3.341   2.594 -0.8389 -1.4005 -0.5889
 3120SOL    HW2 9180   3.635   3.456   2.480  0.5937 -0.1161  0.8685
 3121SOL     OW 9181   2.694   0.167   0.603 -0.1425  0.0435 -0.4446
 3121SOL    HW1 9182   2.682   0.232   0.678 -0.0675 -0.3037 -0.1292
 3121SOL    HW2 9183   2.725   0.080   0.639 -0.1703 -0.1482 -0.8749
 3122SOL     OW 9184   0.166   1.961   1.147 -0.1448  0.2039 -0.1654
 3122SOL    HW1 9185   0.239   2.022   1.179  0.8427 -0.9322 -0.1891
 3122SOL    HW2 9186   0.086   1.970   1.207 -0.3769  2.1936 -0.7233
 3123SOL     OW 9187   1.561   0.258   2.431 -0.6273  0.6421  0.1133
 3123SOL    HW1 9188   1.547   0.342   2.378 -0.1053 -0.7277 -2.3453
 3123SOL    HW2 9189   1.495   0.189   2.402  0.4563 -0.5410  0.3554
 3124SOL     OW 9190   2.324   4.252   2.189  0.4756  0.7112  0.7295
 3124SOL    HW1 9191   2.336   4.198   2.106 -0.7277  2.8353 -0.9485
 3124SOL    HW2 9192   2.226   4.256   2.211  0.6976  0.9753  1.6784
 3125SOL     OW 9193   3.552   2.952   4.944  1.2718 -0.0674  0.1130
 3125SOL    HW1 9194   3.520   3.014   5.016  1.1507 -0.5901  0.5137
 3125SOL    HW2 9195   3.639   2.986   4.907 -0.4656  2.3229 -2.1675
 3126SOL     OW 9196   2.512   1.899   4.221 -0.1071  0.5990 -0.3098
 3126SOL    HW1 9197   2.457   1.951   4.155  0.1212  0.9660 -0.2176
 3126SOL    HW2 9198   2.453   1.844   4.279 -0.3004  0.1166 -0.9531
 3127SOL     OW 9199   1.488   4.566   0.762 -0.0219 -0.7418 -0.2783
 3127SOL    HW1 9200   1.441   4.516   0.689 -0.3447 -1.2260  0.2549
 3127SOL    HW2 9201   1.488   4.664   0.740  0.2044 -0.9122 -1.0999
 3128SOL     OW 9202   0.943   1.471   1.207 -0.7520 -0.0534 -0.1813
 3128SOL    HW1 9203   0.945   1.463   1.108 -0.7773  1.4955 -0.3372
 3128SOL    HW2 9204   0.882   1.546   1.234  0.5358  0.6675  0.8889
 3129SOL     OW 9205   2.088   1.334   0.323  0.2962 -0.0885 -0.5520
 3129SOL    HW1 9206   2.025   1.349   0.247  0.8173  1.1407 -0.7606
 3129SOL    HW2 9207   2.126   1.242   0.317  0.3397 -0.0051 -1.7938
 3130SOL     OW 9208   4.185   0.779   4.295 -0.1068  0.2008 -0.3309
 3130SOL    HW1 9209   4.105   0.759   4.238 -1.0996 -2.7771  1.8128
 3130SOL    HW2 9210   4.267   0.746   4.249 -0.5558  0.0967 -1.0790
 3131SOL     OW 9211   0.490   1.684   4.409 -0.1894  0.0928 -0.7628
 3131SOL    HW1 9212   0.470   1.771   4.455 -0.5443  0.4594 -1.5979
 3131SOL    HW2 9213   0.469   1.608   4.470  1.7023  0.5966  0.6317
 3132SOL     OW 9214   3.500   4.022   3.718 -0.0856 -0.1631 -0.1095
 3132SOL    HW1 9215   3.575   4.080   3.749  1.0625 -0.3416 -2.3141
 3132SOL    HW2 9216   3.454   3.982   3.796  2.6413 -0.7020  1.3536
 3133SOL     OW 9217   0.731   2.061   3.655  0.1315  0.4528  0.0519
 3133SOL    HW1 9218   0.664   2.004   3.702 -0.3453 -0.4004 -1.5863
 3133SOL    HW2 9219   0.729   2.153   3.693 -1.1108  0.1188  0.8367
 3134SOL     OW 9220   3.478   0.368   4.559 -0.3296 -0.3793 -0.3767
 3134SOL    HW1 9221   3.466   0.425   4.478 -0.3503 -0.2251 -0.2658
 3134SOL    HW2 9222   3.562   0.395   4.606  1.5092 -2.6363 -2.1348
 3135SOL     OW 9223   0.496   3.820   2.093 -0.0950  0.0835  0.6898
 3135SOL    HW1 9224   0.542   3.761   2.160  0.7965 -0.2406 -0.1814
 3135SOL    HW2 9225   0.409   3.851   2.131 -0.1711 -1.0658  1.5322
 3136SOL     OW 9226   2.806   1.152   2.743 -0.2083 -0.0943 -0.8343
 3136SOL    HW1 9227   2.905   1.162   2.730  0.1446 -2.5840 -0.5539
 3136SOL    HW2 9228   2.777   1.062   2.711 -2.2046  0.1233  0.2057
 3137SOL     OW 9229   2.365   0.478   0.519  0.2963  0.0698  0.3164
 3137SOL    HW1 9230   2.291   0.506   0.581  0.0533 -0.6589  0.3577
 3137SOL    HW2 9231   2.443   0.540   0.530 -0.5757  1.3203 -0.2624
 3138SOL     OW 9232   1.419   0.509   1.724 -0.3357  0.3673  0.3137
 3138SOL    HW1 9233   1.347   0.471   1.665  0.3762  1.0037 -1.0139
 3138SOL    HW2 9234   1.377   0.562   1.798 -1.2462  0.5955 -0.3413
 3139SOL     OW 9235   4.235   3.900   4.317  0.4828  0.0587  0.6445
 3139SOL    HW1 9236   4.165   3.830   4.332  0.6564  0.0548  1.4801
 3139SOL    HW2 9237   4.289   3.912   4.400  0.5496  1.0901  0.4640
 3140SOL     OW 9238   2.439   0.954   3.468 -0.2882 -0.0807  0.4170
 3140SOL    HW1 9239   2.534   0.986   3.475 -0.1148 -0.4713 -0.1289
 3140SOL    HW2 9240   2.433   0.862   3.507  0.2709 -1.4540 -2.4515
 3141SOL     OW 9241   0.644   2.941   2.525 -0.1595  0.5176  0.2034
 3141SOL    HW1 9242   0.611   2.869   2.585 -0.2163 -0.2666 -0.7328
 3141SOL    HW2 9243   0.732   2.914   2.486 -0.0403  1.0870  0.0675
 3142SOL     OW 9244   1.741   0.690   3.276  0.1662  0.0498 -0.2867
 3142SOL    HW1 9245   1.701   0.779   3.256  2.1312  1.0967  0.2022
 3142SOL    HW2 9246   1.826   0.679   3.226 -0.4359 -1.9326 -0.9736
 3143SOL     OW 9247   2.626   3.847   0.955 -0.4401  0.4722  0.4987
 3143SOL    HW1 9248   2.599   3.774   0.891  0.7442 -0.1979  0.7306
 3143SOL    HW2 9249   2.651   3.929   0.903  0.9505 -0.2098  0.0375
 3144SOL     OW 9250   3.896   4.092   3.501 -0.3701  0.1558  0.7034
 3144SOL    HW1 9251   3.940   4.122   3.586 -1.8789  0.7839  1.3190
 3144SOL    HW2 9252   3.866   4.173   3.450 -0.9711 -0.2447  0.4209
 3145SOL     OW 9253   3.337   3.750   2.134  0.3644 -0.1931  0.0352
 3145SOL    HW1 9254   3.390   3.680   2.183  0.1486  0.1045  0.7058
 3145SOL    HW2 9255   3.284   3.803   2.200  0.9006  0.9288 -0.4191
 3146SOL     OW 9256   0.268   3.947   2.195 -0.4896  0.6024  0.1951
 3146SOL    HW1 9257   0.174   3.920   2.172 -0.4374 -0.3175  0.9766
 3146SOL    HW2 9258   0.276   3.957   2.294 -0.2765  2.7696 -0.0122
 3147SOL     OW 9259   3.151   1.738   3.256 -0.6490 -0.3997 -0.4699
 3147SOL    HW1 9260   3.185   1.775   3.170 -1.4658 -0.0556 -0.6579
 3147SOL    HW2 9261   3.108   1.811   3.309 -2.2455 -1.0399 -0.8241
 3148SOL     OW 9262   1.537   3.682   1.629 -0.1342 -0.4123  0.2009
 3148SOL    HW1 9263   1.479   3.732   1.693  1.5189 -0.2909  1.6824
 3148SOL    HW2 9264   1.553   3.589   1.664  1.1983 -0.1858  0.2459
 3149SOL     OW 9265   4.247   1.280   4.948  0.0317 -0.2591  0.3699
 3149SOL    HW1 9266   4.342   1.310   4.947  0.3136 -1.1258 -0.7374
 3149SOL    HW2 9267   4.242   1.184   4.977 -0.3493 -0.6605 -0.9817
 3150SOL     OW 9268   2.100   4.182   4.450  0.4559  0.4844 -0.4014
 3150SOL    HW1 9269   2.144   4.265   4.417  0.0768  0.7044 -0.3604
 3150SOL    HW2 9270   2.129   4.163   4.544  0.6348  0.5043 -0.4528
 3151SOL     OW 9271   1.009   2.406   0.384  0.2220 -0.2286  0.4946
 3151SOL    HW1 9272   0.977   2.500   0.400 -0.8432 -0.2747 -1.1368
 3151SOL    HW2 9273   1.067   2.405   0.302  0.1966 -0.9990  0.4846
 3152SOL     OW 9274   0.823   2.147   1.059  0.0687  0.2722  0.2461
 3152SOL    HW1 9275   0.920   2.125   1.067  1.1335  3.4824 -1.8415
 3152SOL    HW2 9276   0.783   2.095   0.984  0.6407  0.1230  0.0383
 3153SOL     OW 9277   1.816   0.035   0.504 -0.0958 -0.0477  0.1856
 3153SOL    HW1 9278   1.873   0.071   0.429 -0.3012 -0.4964 -0.1940
 3153SOL    HW2 9279   1.874  -0.015   0.568  0.2912  1.4632  1.0569
 3154SOL     OW 9280   2.772   0.373   2.803 -0.8524 -0.2129 -0.0200
 3154SOL    HW1 9281   2.704   0.303   2.821  0.2768 -1.4868 -0.5573
 3154SOL    HW2 9282   2.856   0.331   2.771 -0.3105  1.4353 -0.8966
 3155SOL     OW 9283   0.956   4.391   0.553 -0.4868 -0.6751  0.0062
 3155SOL    HW1 9284   0.881   4.453   0.528  0.4752 -0.0041 -1.3557
 3155SOL    HW2 9285   1.009   4.368   0.472 -0.1490 -2.4375  0.6796
 3156SOL     OW 9286   3.013   4.150   2.715  0.3506  0.3333  0.1313
 3156SOL    HW1 9287   2.925   4.155   2.762 -0.9058  0.9380 -2.1644
 3156SOL    HW2 9288   3.058   4.064   2.739 -1.4901 -0.6295  0.3076
 3157SOL     OW 9289   1.166   1.286   4.067  0.0382 -0.2232 -0.4056
 3157SOL    HW1 9290   1.238   1.267   4.001  0.6762 -0.8286  0.4485
 3157SOL    HW2 9291   1.090   1.222   4.053 -0.1802  0.1585 -1.0430
 3158SOL     OW 9292   3.872   4.546   2.730  0.3645 -0.4709  0.2833
 3158SOL    HW1 9293   3.775   4.566   2.738  0.5770  0.3182  1.0735
 3158SOL    HW2 9294   3.908   4.517   2.818  0.8013 -0.9695 -0.0557
 3159SOL     OW 9295   0.647   3.849   4.530 -0.0765  0.1743  0.3146
 3159SOL    HW1 9296   0.704   3.846   4.448  0.4073 -1.0949  0.6731
 3159SOL    HW2 9297   0.636   3.944   4.559  3.8590  0.4527  1.5846
 3160SOL     OW 9298   0.630   4.714   5.007  0.3681  0.6294  0.1824
 3160SOL    HW1 9299   0.614   4.697   4.910  2.1566 -3.1060  0.3865
 3160SOL    HW2 9300   0.568   4.658   5.062  0.4161  1.5304  1.1957
 3161SOL     OW 9301   4.167   2.890   1.601 -0.2054  0.4952 -0.2329
 3161SOL    HW1 9302   4.247   2.930   1.647 -1.0437 -1.4752  3.2770
 3161SOL    HW2 9303   4.085   2.942   1.626 -0.4206  0.9326 -1.7194
 3162SOL     OW 9304   5.007   1.014   3.994  0.4618 -0.2635  0.5568
 3162SOL    HW1 9305   4.938   1.040   4.061 -1.1337  0.5675 -1.3160
 3162SOL    HW2 9306   5.086   1.075   4.001 -2.0593  3.7317 -1.9420
 3163SOL     OW 9307   1.398   3.531   2.138 -0.9611  0.4202 -0.0283
 3163SOL    HW1 9308   1.343   3.517   2.055  1.8220  0.8047 -2.0763
 3163SOL    HW2 9309   1.393   3.628   2.164 -2.6668  0.1085  0.9467
 3164SOL     OW 9310   4.803   0.366   2.920 -0.1185 -0.0782 -0.3299
 3164SOL    HW1 9311   4.895   0.380   2.955 -0.5588 -0.5047  1.0729
 3164SOL    HW2 9312   4.756   0.454   2.912 -0.0734  0.0091  0.3504
 3165SOL     OW 9313   3.307   1.688   4.519  0.5092  0.8090 -0.6949
 3165SOL    HW1 9314   3.228   1.740   4.551  0.5716  1.0479 -0.9244
 3165SOL    HW2 9315   3.382   1.751   4.497  2.2272  0.4290  3.3465
 3166SOL     OW 9316   0.853   0.338   0.882  0.1297  0.0059 -0.4697
 3166SOL    HW1 9317   0.886   0.245   0.868  0.7216  0.4192 -1.9921
 3166SOL    HW2 9318   0.834   0.381   0.794 -0.4781  1.2121  0.2191
 3167SOL     OW 9319   4.982   0.110   0.791 -0.0962 -0.4285 -0.6287
 3167SOL    HW1 9320   4.942   0.018   0.785 -1.3925 -0.0172  1.0081
 3167SOL    HW2 9321   4.918   0.177   0.754 -1.2355  0.2836  2.3673
 3168SOL     OW 9322   2.707   4.036   4.864 -0.7101  0.1886  0.0616
 3168SOL    HW1 9323   2.726   3.989   4.950  0.1161  0.8598  0.2620
 3168SOL    HW2 9324   2.721   4.134   4.876 -1.4750  0.3989 -0.6042
 3169SOL     OW 9325   1.366   3.110   0.915 -0.6529 -0.3255 -0.1513
 3169SOL    HW1 9326   1.268   3.091   0.908 -0.3664 -2.2044  0.2785
 3169SOL    HW2 9327   1.408   3.103   0.825 -0.9006  0.4819 -0.3360
 3170SOL     OW 9328   1.378   3.144   4.072  0.2565  0.3637  0.0105
 3170SOL    HW1 9329   1.395   3.238   4.104  1.8173  0.4950 -1.0641
 3170SOL    HW2 9330   1.340   3.147   3.979 -1.6194 -0.0605  0.7289
 3171SOL     OW 9331   1.475   0.205   2.040  0.0221 -0.0151  0.5897
 3171SOL    HW1 9332   1.468   0.283   2.103  1.3854 -0.0266  0.7989
 3171SOL    HW2 9333   1.385   0.164   2.028 -0.6315  1.2521  0.9061
 3172SOL     OW 9334   1.177   4.566   4.852  0.1908  0.1535  0.8410
 3172SOL    HW1 9335   1.168   4.469   4.876 -2.1872  0.3651  1.0994
 3172SOL    HW2 9336   1.263   4.601   4.887  1.7373 -2.1544 -0.3934
 3173SOL     OW 9337   0.487   0.807   2.504  0.1785 -0.2058  0.2037
 3173SOL    HW1 9338   0.531   0.762   2.427 -0.2476  1.3648 -0.9978
 3173SOL    HW2 9339   0.395   0.770   2.516 -0.3525  0.6439 -1.0855
 3174SOL     OW 9340   1.996   4.581   1.443  0.1228 -0.2854 -0.1319
 3174SOL    HW1 9341   1.912   4.597   1.391 -0.4667 -1.4443  0.4349
 3174SOL    HW2 9342   1.974   4.532   1.528  1.5794 -2.4540 -0.9192
 3175SOL     OW 9343   3.247   1.825   3.000  0.2678  0.3293  0.2891
 3175SOL    HW1 9344   3.212   1.886   2.930  0.9734  1.7842  1.1571
 3175SOL    HW2 9345   3.339   1.795   2.975  0.5770  0.9629  0.6256
 3176SOL     OW 9346   1.483   2.149   0.821  1.0580  0.3816  1.1152
 3176SOL    HW1 9347   1.436   2.226   0.778 -0.4361 -0.4765  1.1246
 3176SOL    HW2 9348   1.530   2.096   0.750  2.9047  1.7897  1.2225
 3177SOL     OW 9349   0.714   2.361   1.842  0.5486 -0.2086  0.3188
 3177SOL    HW1 9350   0.665   2.283   1.881  2.4885 -1.6242  0.1045
 3177SOL    HW2 9351   0.681   2.446   1.883 -3.1219 -0.8609 -0.9404
 3178SOL     OW 9352   4.254   4.728   0.044  0.5656 -0.3722  0.0926
 3178SOL    HW1 9353   4.279   4.729   0.141 -0.2405  0.1226  0.3026
 3178SOL    HW2 9354   4.223   4.637   0.018  0.9608 -0.5537  0.2508
 3179SOL     OW 9355   1.254   2.090   1.834  0.7076  0.5334  0.0770
 3179SOL    HW1 9356   1.182   2.058   1.896  0.2953 -0.4901 -0.8973
 3179SOL    HW2 9357   1.214   2.137   1.756  1.0197 -0.5506 -0.7703
 3180SOL     OW 9358   0.391   3.543   0.164 -0.2882  0.4905 -0.4328
 3180SOL    HW1 9359   0.338   3.563   0.082 -0.3408  0.3936 -0.4219
 3180SOL    HW2 9360   0.374   3.449   0.193 -0.0811  0.4460 -0.4526
 3181SOL     OW 9361   2.259   0.993   1.996  0.2172 -0.0415 -0.2207
 3181SOL    HW1 9362   2.169   0.950   2.001 -0.2329  0.8462 -0.6007
 3181SOL    HW2 9363   2.267   1.046   1.912  0.8328  0.4791  0.1524
 3182SOL     OW 9364   2.509   0.907   2.090 -0.2556 -0.2117 -0.0460
 3182SOL    HW1 9365   2.427   0.935   2.040 -0.5550 -1.4501 -0.2811
 3182SOL    HW2 9366   2.511   0.807   2.097  1.2689 -0.1976 -0.0774
 3183SOL     OW 9367   1.011   3.697   4.517  0.1515  0.1384 -0.8317
 3183SOL    HW1 9368   1.004   3.792   4.547 -0.8563 -0.0170 -0.5511
 3183SOL    HW2 9369   1.106   3.676   4.496  0.7533  0.5395  1.2838
 3184SOL     OW 9370   4.697   4.402   1.809  0.4691 -0.1765  0.1651
 3184SOL    HW1 9371   4.650   4.365   1.729 -0.4620 -1.0570  1.0951
 3184SOL    HW2 9372   4.783   4.445   1.780  0.5888 -1.2648 -1.1907
 3185SOL     OW 9373   3.544   4.410   4.927 -0.5693 -0.1228  0.0726
 3185SOL    HW1 9374   3.585   4.329   4.885  0.2788  1.1548 -1.7014
 3185SOL    HW2 9375   3.615   4.465   4.969 -0.9805  0.2638  0.2712
 3186SOL     OW 9376   1.311   2.196   1.405  0.1400  0.1499  0.0061
 3186SOL    HW1 9377   1.347   2.238   1.322  0.1812 -1.0042 -0.5904
 3186SOL    HW2 9378   1.385   2.146   1.451  0.3509  1.5900  1.2812
 3187SOL     OW 9379   2.985   0.160   3.053 -0.1950 -0.3594 -0.0216
 3187SOL    HW1 9380   2.889   0.140   3.073 -0.3198  1.0742  1.0149
 3187SOL    HW2 9381   2.999   0.164   2.954 -1.2881 -0.2526 -0.1813
 3188SOL     OW 9382   2.738   0.374   4.996 -0.2081  0.2025 -0.2065
 3188SOL    HW1 9383   2.650   0.395   4.953  0.0825 -0.4401 -1.1696
 3188SOL    HW2 9384   2.729   0.294   5.055 -0.3925  0.4801  0.1415
 3189SOL     OW 9385   1.501   0.473   4.457  0.1481  0.0448 -0.0582
 3189SOL    HW1 9386   1.542   0.407   4.520  0.2720  0.9653  0.8417
 3189SOL    HW2 9387   1.571   0.508   4.395  0.5721  1.0105  0.9480
 3190SOL     OW 9388   3.199   2.458   1.705  0.6293  0.2839  0.7020
 3190SOL    HW1 9389   3.246   2.517   1.640 -0.7646  0.6901  0.0273
 3190SOL    HW2 9390   3.167   2.375   1.659  0.3010  0.2225  1.0294
 3191SOL     OW 9391   3.305   4.923   0.204  0.5077 -0.0556  0.1243
 3191SOL    HW1 9392   3.280   4.896   0.297 -1.0468  1.9861  0.3619
 3191SOL    HW2 9393   3.222   4.943   0.152  1.4111 -0.0758 -1.3726
 3192SOL     OW 9394   4.498   1.332   0.466 -0.1948 -0.5935  0.4143
 3192SOL    HW1 9395   4.451   1.414   0.497 -1.5683 -1.2687  0.1660
 3192SOL    HW2 9396   4.477   1.256   0.528 -1.1070 -1.3967 -0.8340
 3193SOL     OW 9397   1.433   2.063   3.483  0.7067  0.1232 -0.2901
 3193SOL    HW1 9398   1.484   2.139   3.523 -0.3681  1.2618 -1.0307
 3193SOL    HW2 9399   1.475   2.035   3.397  1.6046 -0.7261  0.3980
 3194SOL     OW 9400   3.031   3.899   2.868  0.1791  0.1494 -0.6218
 3194SOL    HW1 9401   3.052   3.924   2.962  1.9215 -0.9154 -0.6747
 3194SOL    HW2 9402   3.103   3.839   2.833 -0.1264  0.9684 -2.8226
 3195SOL     OW 9403   4.589   1.380   1.489  0.7848  0.2804 -0.0713
 3195SOL    HW1 9404   4.664   1.381   1.555  1.4629  1.6249 -0.8082
 3195SOL    HW2 9405   4.508   1.338   1.530  2.2347 -2.2818  0.3737
 3196SOL     OW 9406   2.419   4.005   0.624 -0.6954  0.1573  0.1468
 3196SOL    HW1 9407   2.353   4.010   0.549 -0.6264  1.7933  0.1542
 3196SOL    HW2 9408   2.373   4.029   0.710 -0.8320 -1.9341  0.7237
 3197SOL     OW 9409   4.699   2.506   3.401  0.4458  0.0196  0.3214
 3197SOL    HW1 9410   4.690   2.426   3.342  0.6066  0.7940 -0.7775
 3197SOL    HW2 9411   4.786   2.551   3.383  1.3236 -0.6999  2.4164
 3198SOL     OW 9412   0.626   4.307   0.612 -0.2056 -0.2827  0.2487
 3198SOL    HW1 9413   0.642   4.221   0.660 -0.7990 -0.5081  0.0558
 3198SOL    HW2 9414   0.674   4.381   0.658  1.2920 -0.9008 -0.2620
 3199SOL     OW 9415   2.789   1.413   4.922 -0.4279  0.5315 -0.0256
 3199SOL    HW1 9416   2.809   1.362   4.838  2.3722  0.6495  0.4778
 3199SOL    HW2 9417   2.803   1.353   5.001  1.7641  1.6716  0.5247
 3200SOL     OW 9418   3.472   4.853   3.652  0.6315 -0.0496 -0.6464
 3200SOL    HW1 9419   3.444   4.949   3.648  1.7848  0.2534 -2.5772
 3200SOL    HW2 9420   3.398   4.795   3.618  0.8520  0.3890 -1.9131
 3201SOL     OW 9421   2.856   3.704   4.014 -0.5950 -0.1898 -0.1981
 3201SOL    HW1 9422   2.927   3.734   3.950  0.4684 -0.0247  1.0269
 3201SOL    HW2 9423   2.814   3.784   4.057 -0.2274 -0.3257  0.4352
 3202SOL     OW 9424   1.934   3.841   3.422  0.6581 -0.6990  0.0607
 3202SOL    HW1 9425   1.933   3.924   3.477  2.4438 -0.8121  0.3262
 3202SOL    HW2 9426   1.897   3.862   3.331  0.0690  0.1012  0.4656
 3203SOL     OW 9427   4.136   3.796   1.743 -0.8565 -0.2959 -0.5412
 3203SOL    HW1 9428   4.175   3.860   1.809 -0.8136  0.8089 -1.6069
 3203SOL    HW2 9429   4.201   3.721   1.728 -1.1404 -0.9366  1.1262
 3204SOL     OW 9430   4.561   4.025   3.853  0.5820  0.4311  0.0193
 3204SOL    HW1 9431   4.505   4.022   3.936  0.3573  1.6203 -0.0619
 3204SOL    HW2 9432   4.540   3.946   3.796  1.2371 -0.7691  1.3930
 3205SOL     OW 9433   0.079   3.306   2.597 -0.1650  0.2392  0.3271
 3205SOL    HW1 9434   0.061   3.356   2.681  0.0687 -0.2149  0.6579
 3205SOL    HW2 9435   0.178   3.299   2.583 -0.2092  1.0642 -0.4500
 3206SOL     OW 9436   1.310   2.185   2.478 -0.4477 -0.5778 -0.5645
 3206SOL    HW1 9437   1.383   2.196   2.546  0.4944 -1.4352 -1.4039
 3206SOL    HW2 9438   1.349   2.151   2.393 -1.5275  0.9753 -1.7346
 3207SOL     OW 9439   1.868   0.249   0.111 -0.0244  0.5626 -0.3807
 3207SOL    HW1 9440   1.848   0.200   0.027 -0.7932 -1.1825  0.7577
 3207SOL    HW2 9441   1.897   0.184   0.182  0.0900  1.9064  0.8595
 3208SOL     OW 9442   4.761   3.031   4.269 -0.3995 -0.0473 -0.3164
 3208SOL    HW1 9443   4.730   3.082   4.188  1.6582  1.0715 -0.4637
 3208SOL    HW2 9444   4.761   2.933   4.248 -1.0309  0.1370 -1.2566
 3209SOL     OW 9445   2.881   4.748   4.784 -0.0363 -0.2302  0.1961
 3209SOL    HW1 9446   2.980   4.764   4.784 -0.1580  0.6020 -0.0472
 3209SOL    HW2 9447   2.855   4.700   4.867  0.4615  0.3541  0.7032
 3210SOL     OW 9448   3.786   2.576   3.459 -0.3017  0.2845  0.4430
 3210SOL    HW1 9449   3.687   2.587   3.460 -0.3160  0.2419 -0.0253
 3210SOL    HW2 9450   3.825   2.635   3.388 -0.1517 -0.9168 -0.5075
 3211SOL     OW 9451   3.249   3.764   1.372  0.1153 -0.1871  0.5028
 3211SOL    HW1 9452   3.249   3.701   1.450 -0.3630 -0.6888  0.1112
 3211SOL    HW2 9453   3.231   3.857   1.405 -2.0800 -0.6537  0.8324
 3212SOL     OW 9454   0.570   3.182   4.281  0.1556 -0.0453 -0.0478
 3212SOL    HW1 9455   0.611   3.110   4.226  1.3188  0.9295 -0.5129
 3212SOL    HW2 9456   0.628   3.264   4.278  0.9655 -0.2884  3.5731
 3213SOL     OW 9457   0.925   0.015   2.692  0.2943  0.5326 -0.3098
 3213SOL    HW1 9458   0.900  -0.069   2.643  0.1799  0.4989 -0.1935
 3213SOL    HW2 9459   0.958   0.083   2.626  0.2480  0.4479 -0.4216
 3214SOL     OW 9460   1.353   1.151   0.980  0.7763 -0.1603 -0.1801
 3214SOL    HW1 9461   1.397   1.071   1.021  0.3121 -0.8020 -0.9013
 3214SOL    HW2 9462   1.267   1.169   1.027  1.1575  0.2775  0.3600
 3215SOL     OW 9463   4.830   2.797   1.639  0.1020  0.3362  0.4101
 3215SOL    HW1 9464   4.885   2.860   1.694  0.5750  1.2837 -1.0717
 3215SOL    HW2 9465   4.867   2.794   1.546 -1.6185  0.0338 -0.2987
 3216SOL     OW 9466   2.840   2.036   1.454 -0.4824 -0.1264  0.2359
 3216SOL    HW1 9467   2.766   2.099   1.431 -0.2757 -0.2180 -0.7435
 3216SOL    HW2 9468   2.891   2.013   1.371  0.6667 -0.0438  0.8883
 3217SOL     OW 9469   4.365   4.850   1.981  0.3830 -0.2243  0.3759
 3217SOL    HW1 9470   4.461   4.854   1.953  0.2801 -1.7632 -0.3106
 3217SOL    HW2 9471   4.325   4.763   1.951 -1.1050  0.1882  1.0584
 3218SOL     OW 9472   1.989   0.029   3.434 -0.1942 -0.1421 -0.3401
 3218SOL    HW1 9473   1.974  -0.005   3.527  0.1143 -0.5498 -0.4404
 3218SOL    HW2 9474   1.952  -0.036   3.368 -0.6073  0.2506 -0.5006
 3219SOL     OW 9475   0.026   4.173   4.198  0.0918  0.3281 -0.4441
 3219SOL    HW1 9476   0.112   4.127   4.218 -1.5114 -2.7651  0.0460
 3219SOL    HW2 9477   0.015   4.181   4.099  1.0462  1.0404 -0.5070
 3220SOL     OW 9478   2.572   4.144   4.319  0.6233  0.2011 -0.6660
 3220SOL    HW1 9479   2.634   4.222   4.319  1.7873 -0.6757  0.4109
 3220SOL    HW2 9480   2.618   4.066   4.362 -1.1467 -0.5657 -0.1135
 3221SOL     OW 9481   2.234   0.610   3.294 -0.3156 -0.2808 -0.1419
 3221SOL    HW1 9482   2.228   0.522   3.341 -1.4103 -0.1065  0.0639
 3221SOL    HW2 9483   2.153   0.665   3.316  0.9034  1.2670  0.7053
 3222SOL     OW 9484   1.537   1.732   4.665  0.0818 -0.5297 -0.3521
 3222SOL    HW1 9485   1.463   1.777   4.614  2.8194  1.9486 -2.4666
 3222SOL    HW2 9486   1.556   1.643   4.623 -1.2717 -0.9569 -0.1215
 3223SOL     OW 9487   3.165   1.944   0.664 -0.4064 -0.3004 -0.4378
 3223SOL    HW1 9488   3.082   1.999   0.654  0.9795  1.8283 -0.8700
 3223SOL    HW2 9489   3.145   1.849   0.639 -2.5825  0.2389 -0.9846
 3224SOL     OW 9490   4.836   0.104   4.394  0.0908 -0.4724 -0.2642
 3224SOL    HW1 9491   4.778   0.178   4.428 -0.0809 -0.9070  0.4240
 3224SOL    HW2 9492   4.814   0.085   4.299 -0.3372 -0.0879 -0.2462
 3225SOL     OW 9493   1.241   1.045   4.746 -0.5363  0.3863 -0.3738
 3225SOL    HW1 9494   1.220   1.134   4.704 -0.2501 -0.0508 -1.4851
 3225SOL    HW2 9495   1.206   0.972   4.687 -2.2281 -0.2460  1.3210
 3226SOL     OW 9496   2.334   1.074   4.738 -0.3414 -0.7015  0.3865
 3226SOL    HW1 9497   2.248   1.072   4.687  0.3545 -1.1323 -0.7953
 3226SOL    HW2 9498   2.362   0.981   4.760 -0.1469 -0.5646  0.7311
 3227SOL     OW 9499   1.410   3.349   1.889  0.2513 -0.0932  0.1727
 3227SOL    HW1 9500   1.345   3.425   1.877  0.7493  0.4465  0.8086
 3227SOL    HW2 9501   1.370   3.281   1.950 -0.0931 -0.2284 -0.1956
 3228SOL     OW 9502   2.904   4.792   4.448  0.2805 -0.5645  0.2671
 3228SOL    HW1 9503   2.845   4.873   4.450  0.2800 -0.5688  0.4459
 3228SOL    HW2 9504   2.943   4.781   4.356 -0.6579 -1.0362 -0.0907
 3229SOL     OW 9505   3.321   3.212   0.752  0.5417 -0.7376 -0.6327
 3229SOL    HW1 9506   3.236   3.175   0.714  0.2420  0.2332 -0.9473
 3229SOL    HW2 9507   3.352   3.288   0.695  0.4068  0.3769  0.7434
 3230SOL     OW 9508   3.166   1.827   5.011  0.7692 -0.2213 -0.5983
 3230SOL    HW1 9509   3.230   1.781   4.949  0.1780  1.0199 -2.2236
 3230SOL    HW2 9510   3.077   1.780   5.007 -0.0969  1.4248 -2.9385
 3231SOL     OW 9511   2.463   2.337   1.847  0.1227 -0.2919  0.5154
 3231SOL    HW1 9512   2.524   2.268   1.885 -0.0128  0.2607  1.7707
 3231SOL    HW2 9513   2.485   2.351   1.750  1.5061 -0.6131  0.7645
 3232SOL     OW 9514   3.141   3.819   0.665 -0.2860 -0.0224  0.9001
 3232SOL    HW1 9515   3.204   3.849   0.735 -0.7182  1.2756  0.7624
 3232SOL    HW2 9516   3.064   3.883   0.660 -1.4263 -1.3548  0.8154
 3233SOL     OW 9517   1.302   3.525   0.360 -0.3112 -0.5906 -0.6311
 3233SOL    HW1 9518   1.301   3.616   0.400  2.4482 -0.1472 -1.3605
 3233SOL    HW2 9519   1.225   3.472   0.395 -0.5518  1.1886  1.7637
 3234SOL     OW 9520   3.099   1.244   2.677  0.1189 -0.2163 -0.3124
 3234SOL    HW1 9521   3.195   1.242   2.705  0.5965  0.3678 -1.7939
 3234SOL    HW2 9522   3.089   1.199   2.589 -1.0644 -0.6984  0.0515
 3235SOL     OW 9523   4.271   0.995   5.004 -0.4265 -0.1600  0.7937
 3235SOL    HW1 9524   4.316   0.920   5.054 -1.0107 -0.5575  0.7358
 3235SOL    HW2 9525   4.227   0.958   4.922 -1.7443  0.0407  1.3853
 3236SOL     OW 9526   3.267   3.398   0.348  0.2749 -0.4226 -0.1647
 3236SOL    HW1 9527   3.224   3.313   0.376  0.2121 -0.0415  0.9444
 3236SOL    HW2 9528   3.198   3.460   0.311  0.4684 -1.2045 -1.9385
 3237SOL     OW 9529   1.484   3.151   0.696  0.5073 -0.0578  0.3889
 3237SOL    HW1 9530   1.508   3.083   0.627 -1.4085  0.6289 -1.0402
 3237SOL    HW2 9531   1.538   3.234   0.681 -0.7578  0.5453 -1.1621
 3238SOL     OW 9532   0.780   3.964   2.030 -0.0385 -0.0012  0.4059
 3238SOL    HW1 9533   0.687   4.001   2.021 -0.2000 -0.2986  0.7721
 3238SOL    HW2 9534   0.845   4.026   1.988 -0.3720  0.3815  0.4422
 3239SOL     OW 9535   0.177   0.618   2.264  0.3588 -0.2519 -0.3262
 3239SOL    HW1 9536   0.230   0.657   2.189  0.4657  2.5841  1.1033
 3239SOL    HW2 9537   0.080   0.633   2.247  0.3406 -0.2913 -0.2555
 3240SOL     OW 9538   1.320   4.672   2.892 -0.0661 -0.2525  0.1477
 3240SOL    HW1 9539   1.372   4.623   2.822  0.6717 -0.5817  0.9147
 3240SOL    HW2 9540   1.365   4.662   2.980 -1.2480 -0.2525  0.7699
 3241SOL     OW 9541   4.854   1.805   1.662 -0.4211  0.2685  0.2652
 3241SOL    HW1 9542   4.859   1.896   1.703 -3.4721  1.2802 -1.3164
 3241SOL    HW2 9543   4.812   1.741   1.727  1.3401 -0.0058  1.2178
 3242SOL     OW 9544   3.601   1.433   1.947  0.3143  0.4984 -1.0575
 3242SOL    HW1 9545   3.509   1.429   1.986  0.9136 -0.1105  0.3603
 3242SOL    HW2 9546   3.599   1.397   1.854 -0.7740 -0.1252 -0.8132
 3243SOL     OW 9547   4.579   3.787   4.505  0.5049 -0.4507  0.5614
 3243SOL    HW1 9548   4.678   3.794   4.521  0.6886  1.1222 -0.9806
 3243SOL    HW2 9549   4.562   3.722   4.431  0.5590  0.7434 -0.5178
 3244SOL     OW 9550   4.934   2.101   1.709 -0.4098  0.1563 -0.1887
 3244SOL    HW1 9551   4.899   2.111   1.616 -0.3492  1.5420 -0.0771
 3244SOL    HW2 9552   5.034   2.096   1.708 -0.3321  1.4327 -0.1199
 3245SOL     OW 9553   0.209   4.113   1.850  0.1583  0.0666  0.6801
 3245SOL    HW1 9554   0.209   4.212   1.858  1.0935  0.1219  0.1305
 3245SOL    HW2 9555   0.302   4.078   1.859 -0.2323 -0.8130  1.4146
 3246SOL     OW 9556   3.992   2.464   4.624  0.1035 -0.7381  0.3689
 3246SOL    HW1 9557   4.029   2.557   4.622 -4.2638  1.2678 -0.4806
 3246SOL    HW2 9558   4.001   2.426   4.715  2.8920  0.0207  0.4898
 3247SOL     OW 9559   2.762   4.629   0.398  0.4652  0.3665 -0.2101
 3247SOL    HW1 9560   2.747   4.717   0.443 -1.1989  0.6002 -1.1769
 3247SOL    HW2 9561   2.726   4.556   0.455  1.6784  0.2917  0.5048
 3248SOL     OW 9562   1.513   1.285   3.435  0.0989  0.6434 -0.7864
 3248SOL    HW1 9563   1.469   1.331   3.512  0.2973  0.8364 -0.7875
 3248SOL    HW2 9564   1.608   1.316   3.427  0.1018  0.5666 -1.0625
 3249SOL     OW 9565   4.281   2.862   3.055 -0.7996 -0.0585 -0.2393
 3249SOL    HW1 9566   4.317   2.914   3.132  0.8268 -0.5560 -0.6242
 3249SOL    HW2 9567   4.198   2.813   3.083  0.7223 -1.6706  1.7387
 3250SOL     OW 9568   0.323   0.667   1.478 -0.6043  0.4940 -0.3576
 3250SOL    HW1 9569   0.346   0.630   1.568  0.6082  0.1578 -0.7768
 3250SOL    HW2 9570   0.406   0.704   1.435 -1.4675  2.2464 -0.6378
 3251SOL     OW 9571   1.438   3.670   3.053 -0.2302 -0.3999  0.1101
 3251SOL    HW1 9572   1.378   3.613   2.997 -1.3595 -0.0456  0.9171
 3251SOL    HW2 9573   1.531   3.633   3.050  0.2321  0.7237 -3.5593
 3252SOL     OW 9574   3.674   0.668   3.784  0.4900  0.0891 -0.3006
 3252SOL    HW1 9575   3.669   0.741   3.852 -0.9736  0.2358 -0.5190
 3252SOL    HW2 9576   3.598   0.605   3.798 -0.5465  0.7479 -2.4551
 3253SOL     OW 9577   3.971   1.127   0.541 -0.4087 -0.0703 -0.0824
 3253SOL    HW1 9578   3.926   1.102   0.627  0.5163 -1.4672  0.0321
 3253SOL    HW2 9579   4.055   1.177   0.561  0.3617 -1.3085 -0.0898
 3254SOL     OW 9580   3.868   4.106   0.811 -0.0225 -0.0574  0.3682
 3254SOL    HW1 9581   3.859   4.014   0.772 -0.7264  0.0047  0.3698
 3254SOL    HW2 9582   3.949   4.110   0.869  0.8540 -0.2571 -0.7916
 3255SOL     OW 9583   2.181   1.053   3.472 -0.1643  0.0507 -0.0670
 3255SOL    HW1 9584   2.159   1.133   3.416  0.3902  0.2916  0.0497
 3255SOL    HW2 9585   2.280   1.041   3.474 -0.1079  0.5133  1.4924
 3256SOL     OW 9586   3.254   2.084   0.008  0.1513 -0.3177  0.3777
 3256SOL    HW1 9587   3.199   2.155   0.051 -0.0545  1.2745 -2.2558
 3256SOL    HW2 9588   3.202   1.998   0.007 -0.1991 -0.1723  2.3043
 3257SOL     OW 9589   5.034   0.968   3.305 -0.4082 -0.0575  0.2998
 3257SOL    HW1 9590   5.089   1.032   3.359  0.5541 -1.6060  1.2083
 3257SOL    HW2 9591   5.088   0.886   3.286 -0.9319  0.1539 -2.5042
 3258SOL     OW 9592   0.024   3.748   4.651  0.4350 -0.0411 -0.4429
 3258SOL    HW1 9593   0.101   3.786   4.600 -0.5275 -0.0661 -1.9999
 3258SOL    HW2 9594   0.014   3.796   4.738  0.4385  1.9950 -1.5123
 3259SOL     OW 9595   1.056   3.844   4.892  0.4499  0.2980  0.2522
 3259SOL    HW1 9596   1.001   3.870   4.812  0.2927  0.2907  0.3579
 3259SOL    HW2 9597   0.996   3.803   4.961  0.8946 -1.9466 -0.5896
 3260SOL     OW 9598   1.013   0.208   2.514  0.2608 -0.3576  0.2689
 3260SOL    HW1 9599   1.078   0.134   2.497 -0.1662 -0.4405 -1.1102
 3260SOL    HW2 9600   1.064   0.292   2.536  0.7849 -1.6146  5.0915
 3261SOL     OW 9601   0.144   0.409   0.002 -0.1039  0.5284  0.3307
 3261SOL    HW1 9602   0.151   0.408  -0.098 -1.4581  0.4725  0.2166
 3261SOL    HW2 9603   0.189   0.328   0.039 -1.4198 -0.5944 -0.4058
 3262SOL     OW 9604   2.896   1.262   4.708  0.0776 -0.1015 -0.2061
 3262SOL    HW1 9605   2.953   1.314   4.644 -2.5787  1.6902 -1.3309
 3262SOL    HW2 9606   2.850   1.188   4.659 -0.3751 -0.0171  0.0832
 3263SOL     OW 9607   1.487   2.547   2.798 -0.3454 -0.4827  0.1984
 3263SOL    HW1 9608   1.554   2.566   2.727 -0.6775  0.9522  0.2194
 3263SOL    HW2 9609   1.473   2.630   2.853 -1.7930 -0.8886  0.4783
 3264SOL     OW 9610   0.263   3.773   4.309 -1.1051 -0.2678 -0.1511
 3264SOL    HW1 9611   0.242   3.838   4.381 -0.5026  1.6074 -1.6005
 3264SOL    HW2 9612   0.286   3.684   4.349 -1.4512  0.5318  1.8939
 3265SOL     OW 9613   2.946   0.093   2.285  0.5767 -0.3179  0.3667
 3265SOL    HW1 9614   3.013   0.039   2.335  1.1865  0.9844  1.0040
 3265SOL    HW2 9615   2.973   0.189   2.287 -0.8291  0.1066 -0.1674
 3266SOL     OW 9616   0.174   2.100   0.020 -0.2212 -0.5747  0.3238
 3266SOL    HW1 9617   0.225   2.016   0.040 -0.7531 -1.0030 -0.0727
 3266SOL    HW2 9618   0.216   2.177   0.067  1.1609 -0.8093 -0.4807
 3267SOL     OW 9619   3.826   3.487   0.870  0.3290  0.0348  0.2170
 3267SOL    HW1 9620   3.791   3.462   0.960  2.5570 -1.1942  0.8322
 3267SOL    HW2 9621   3.866   3.406   0.826 -0.5840  0.6376 -1.8504
 3268SOL     OW 9622   1.419   4.701   3.128 -0.5058 -0.4070  0.1279
 3268SOL    HW1 9623   1.384   4.726   3.219 -1.5224  2.1966 -0.8918
 3268SOL    HW2 9624   1.492   4.764   3.102 -0.4845 -0.8800 -1.0016
 3269SOL     OW 9625   2.824   1.801   0.560 -0.2932  0.5487  0.6979
 3269SOL    HW1 9626   2.749   1.734   0.556 -0.1893  0.4004  1.1360
 3269SOL    HW2 9627   2.816   1.865   0.484  1.7616 -2.2200 -2.1034
 3270SOL     OW 9628   0.844   3.258   0.206  0.0458  0.2921 -0.5271
 3270SOL    HW1 9629   0.780   3.331   0.232 -0.5261 -0.2996 -0.2558
 3270SOL    HW2 9630   0.900   3.289   0.129  0.1464  1.1982 -0.1008
 3271SOL     OW 9631   0.598   3.607   4.423 -0.3072  0.1915 -0.0898
 3271SOL    HW1 9632   0.501   3.593   4.404 -0.0935 -1.5671 -0.0836
 3271SOL    HW2 9633   0.611   3.695   4.468 -2.3133 -0.7645  2.6615
 3272SOL     OW 9634   4.350   1.416   3.322 -0.2067  0.6415 -0.1687
 3272SOL    HW1 9635   4.384   1.322   3.332 -0.0219  0.8291  1.1129
 3272SOL    HW2 9636   4.250   1.415   3.322 -0.2424  0.5699  1.5868
 3273SOL     OW 9637   2.061   4.204   3.024  0.0018 -0.2115  0.2416
 3273SOL    HW1 9638   1.993   4.266   2.986  0.7439  0.2255 -0.3849
 3273SOL    HW2 9639   2.147   4.212   2.973  0.5307 -0.7525  1.0198
 3274SOL     OW 9640   1.175   2.427   0.172  0.3348  0.8306  1.1626
 3274SOL    HW1 9641   1.236   2.383   0.238 -1.6389 -1.7782  1.4303
 3274SOL    HW2 9642   1.163   2.366   0.093  1.3996  3.1949 -0.9573
 3275SOL     OW 9643   4.021   3.327   2.118 -0.2753 -0.3802 -0.1364
 3275SOL    HW1 9644   4.078   3.278   2.052  0.8451  2.4401 -1.4369
 3275SOL    HW2 9645   3.985   3.410   2.075 -0.9709  0.6656  2.3229
 3276SOL     OW 9646   0.833   3.676   2.079  0.6947 -0.0818  0.3989
 3276SOL    HW1 9647   0.927   3.695   2.108  0.6664 -0.0424  0.4664
 3276SOL    HW2 9648   0.785   3.763   2.064  0.5326 -0.0977  0.8113
 3277SOL     OW 9649   3.930   1.262   4.809 -0.1722  0.3885 -0.2446
 3277SOL    HW1 9650   3.977   1.178   4.784  1.0406  0.7527  0.6898
 3277SOL    HW2 9651   3.834   1.257   4.780 -0.1308 -1.3097 -0.1804
 3278SOL     OW 9652   2.383   2.776   2.494 -0.5813  0.0134 -0.3884
 3278SOL    HW1 9653   2.477   2.809   2.492 -1.2342  2.0440  0.2283
 3278SOL    HW2 9654   2.353   2.754   2.400  0.3855 -0.3546 -0.6195
 3279SOL     OW 9655   0.054   4.221   2.919  0.0220  0.1674  0.0169
 3279SOL    HW1 9656   0.046   4.264   3.008  1.0764  0.5690 -0.0678
 3279SOL    HW2 9657   0.015   4.282   2.849 -0.3211  0.0867  0.1367
 3280SOL     OW 9658   1.822   4.036   0.794  0.3492 -0.0614 -0.8435
 3280SOL    HW1 9659   1.774   4.074   0.715  1.2541  0.9575 -0.9270
 3280SOL    HW2 9660   1.921   4.045   0.780  0.5683  2.7008  1.5627
 3281SOL     OW 9661   0.685   0.473   3.797  0.3729  0.5299 -0.2990
 3281SOL    HW1 9662   0.769   0.426   3.773  0.0657  0.0789 -0.5034
 3281SOL    HW2 9663   0.706   0.558   3.845  0.9181 -0.6115  1.5870
 3282SOL     OW 9664   4.663   4.048   2.963 -1.0444  0.2042 -0.2852
 3282SOL    HW1 9665   4.647   4.144   2.989 -0.7640  0.3582 -0.6639
 3282SOL    HW2 9666   4.653   4.039   2.864  0.4503  0.1609 -0.4519
 3283SOL     OW 9667   4.659   1.261   3.682 -0.3027  0.2710  0.4118
 3283SOL    HW1 9668   4.691   1.269   3.776  0.4956 -0.0567  0.1726
 3283SOL    HW2 9669   4.699   1.180   3.640 -0.7940  0.3163 -0.1622
 3284SOL     OW 9670   4.975   0.778   5.041  0.6760  0.2075 -0.2238
 3284SOL    HW1 9671   4.923   0.712   4.987 -0.0773  1.7542 -1.4732
 3284SOL    HW2 9672   4.968   0.755   5.138 -1.4347 -0.2910 -0.4428
 3285SOL     OW 9673   3.197   2.193   4.154  0.1175  0.2485  0.3289
 3285SOL    HW1 9674   3.126   2.123   4.150  1.0891 -0.7707  0.5469
 3285SOL    HW2 9675   3.214   2.218   4.250 -2.0202  2.7068  0.1799
 3286SOL     OW 9676   4.932   3.482   1.273 -0.1182 -0.0910  0.3388
 3286SOL    HW1 9677   4.938   3.383   1.257 -0.2833 -0.4292  2.1581
 3286SOL    HW2 9678   4.877   3.499   1.354 -0.6872  1.5616 -0.3552
 3287SOL     OW 9679   2.050   1.065   2.966  0.4027 -0.0046 -0.1028
 3287SOL    HW1 9680   2.130   1.086   3.022  0.8232 -2.0927  0.1703
 3287SOL    HW2 9681   1.972   1.044   3.026  0.0763  0.4971 -0.3477
 3288SOL     OW 9682   0.267   3.029   4.653  0.2927  0.6531  0.2977
 3288SOL    HW1 9683   0.198   3.019   4.582  0.9005  0.9125 -0.3331
 3288SOL    HW2 9684   0.356   3.049   4.612  0.8263 -0.0363  1.0810
 3289SOL     OW 9685   3.042   0.739   2.507 -0.2603 -0.2091 -0.6219
 3289SOL    HW1 9686   3.084   0.656   2.543 -0.8260 -0.1861  0.1150
 3289SOL    HW2 9687   2.987   0.716   2.426 -1.7417 -0.8512  0.5187
 3290SOL     OW 9688   4.602   4.082   0.385  0.3669 -0.2347 -0.0684
 3290SOL    HW1 9689   4.621   4.137   0.303  1.6696 -1.7247 -0.8253
 3290SOL    HW2 9690   4.612   4.140   0.466 -2.2451  1.6099 -0.9260
 3291SOL     OW 9691   2.947   4.091   4.395 -0.3217 -0.2304  0.2148
 3291SOL    HW1 9692   2.888   4.119   4.471  1.0476 -0.8401  1.5774
 3291SOL    HW2 9693   2.937   3.993   4.379  1.8774 -0.8385  2.0126
 3292SOL     OW 9694   3.875   4.729   0.790 -0.3035  0.0616  0.1398
 3292SOL    HW1 9695   3.909   4.711   0.697  0.0876 -0.4950  0.3851
 3292SOL    HW2 9696   3.839   4.645   0.829 -1.5315  0.5407  0.0736
 3293SOL     OW 9697   3.696   2.994   2.505 -0.0004  0.1795  0.1837
 3293SOL    HW1 9698   3.735   3.029   2.590  0.1756 -1.9597  1.0426
 3293SOL    HW2 9699   3.720   3.055   2.430  2.4045  0.5496  1.1679
 3294SOL     OW 9700   3.361   4.479   2.185  0.5131  0.1258  0.0711
 3294SOL    HW1 9701   3.314   4.433   2.110 -1.2767  0.6395  0.8380
 3294SOL    HW2 9702   3.294   4.524   2.244  1.9557  0.5786  1.4224
 3295SOL     OW 9703   1.943   0.510   5.005 -0.3425 -0.4034 -0.3463
 3295SOL    HW1 9704   1.879   0.437   5.027  1.5621 -2.9163 -2.4559
 3295SOL    HW2 9705   2.037   0.478   5.022  0.5325  2.2924  0.4547
 3296SOL     OW 9706   3.024   4.946   2.936 -0.7398 -0.6118 -0.2400
 3296SOL    HW1 9707   3.054   5.035   2.972  2.4244 -0.8993 -1.7671
 3296SOL    HW2 9708   2.954   4.908   2.996 -1.4301  2.4035  1.0585
 3297SOL     OW 9709   0.556   0.073   1.563 -0.7770 -0.5084  0.4368
 3297SOL    HW1 9710   0.595   0.150   1.511 -0.9072 -0.5454  0.2829
 3297SOL    HW2 9711   0.630   0.014   1.596 -0.7568 -1.4211 -1.1508
 3298SOL     OW 9712   4.795   2.731   2.968  0.3368 -0.3809  0.0502
 3298SOL    HW1 9713   4.696   2.739   2.957  0.3990  0.3591 -0.0358
 3298SOL    HW2 9714   4.821   2.762   3.060  0.6814  1.3427 -0.5811
 3299SOL     OW 9715   0.929   0.955   3.000  0.4129 -0.1326  0.2250
 3299SOL    HW1 9716   0.942   1.045   3.042 -1.2251  0.2709 -0.0600
 3299SOL    HW2 9717   0.967   0.956   2.907 -0.6229  0.6746 -0.2194
 3300SOL     OW 9718   3.865   1.244   2.572 -0.1638  0.4308 -0.2469
 3300SOL    HW1 9719   3.933   1.172   2.585  0.7671  1.0784 -1.3378
 3300SOL    HW2 9720   3.804   1.220   2.496 -1.3933 -0.2950  0.9287
 3301SOL     OW 9721   2.237   4.097   4.679  0.0444 -0.0210 -0.1648
 3301SOL    HW1 9722   2.205   4.012   4.637 -0.5656  0.1503 -0.0512
 3301SOL    HW2 9723   2.237   4.088   4.778 -0.5989  0.3117 -0.1308
 3302SOL     OW 9724   4.587   2.396   2.029  0.1383 -0.4403 -0.6304
 3302SOL    HW1 9725   4.507   2.336   2.034 -0.4849  0.4136 -0.2384
 3302SOL    HW2 9726   4.632   2.383   1.941 -0.2243 -1.1830 -0.7183
 3303SOL     OW 9727   2.262   4.282   2.845  0.3007  0.1098 -0.0255
 3303SOL    HW1 9728   2.318   4.350   2.891  0.2934 -0.3745  0.7136
 3303SOL    HW2 9729   2.320   4.219   2.793  0.3409  0.3849 -0.3177
 3304SOL     OW 9730   0.944   1.302   0.059 -0.0242 -0.2571  0.3735
 3304SOL    HW1 9731   0.995   1.270   0.139  1.3121 -0.1953 -0.4139
 3304SOL    HW2 9732   1.008   1.321  -0.015 -1.3360 -2.7977 -1.6020
 3305SOL     OW 9733   1.280   2.438   2.999  0.5063  0.1387  0.2292
 3305SOL    HW1 9734   1.183   2.462   2.988  0.2717 -0.6928  0.4222
 3305SOL    HW2 9735   1.336   2.519   2.986 -0.2964  0.9087  1.4172
 3306SOL     OW 9736   3.545   3.902   1.724 -0.0004  0.6294  0.2844
 3306SOL    HW1 9737   3.530   3.805   1.743  1.5397  0.7464  2.6239
 3306SOL    HW2 9738   3.624   3.913   1.664 -0.8928  0.4272 -0.9488
 3307SOL     OW 9739   0.544   2.735   2.643  0.3977 -0.4620  0.1170
 3307SOL    HW1 9740   0.508   2.677   2.570  0.1924  0.6407 -0.6786
 3307SOL    HW2 9741   0.478   2.738   2.718 -0.4693  0.2341 -0.6428
 3308SOL     OW 9742   0.354   0.428   1.978 -0.2613  0.0816  0.1682
 3308SOL    HW1 9743   0.417   0.389   2.046 -1.2720 -0.1454  1.0023
 3308SOL    HW2 9744   0.304   0.353   1.934  0.1905  0.2487 -0.6386
 3309SOL     OW 9745   3.788   2.268   0.801 -0.3955  0.4031 -0.1261
 3309SOL    HW1 9746   3.748   2.356   0.827 -1.0761  0.1905 -0.4297
 3309SOL    HW2 9747   3.732   2.226   0.730 -0.3662 -0.5076  0.3796
 3310SOL     OW 9748   4.830   1.946   4.610  0.0972 -0.4859  0.4112
 3310SOL    HW1 9749   4.865   2.036   4.586 -0.4316 -0.1628  0.8008
 3310SOL    HW2 9750   4.751   1.925   4.553  0.4337 -0.8538  0.0845
 3311SOL     OW 9751   3.390   4.533   0.872 -0.2674 -0.3785 -0.1849
 3311SOL    HW1 9752   3.468   4.561   0.927 -1.3688 -1.1887  1.8772
 3311SOL    HW2 9753   3.422   4.483   0.792  1.3122 -1.4358  1.0505
 3312SOL     OW 9754   4.140   2.679   0.487  0.2598 -0.4533 -0.2022
 3312SOL    HW1 9755   4.052   2.666   0.442  0.8816 -0.4641 -1.4655
 3312SOL    HW2 9756   4.162   2.597   0.541 -1.0120  0.0157  1.0811
 3313SOL     OW 9757   3.513   2.331   2.188  0.0547  0.5983  0.2066
 3313SOL    HW1 9758   3.610   2.328   2.163  0.2832 -0.6273  1.1103
 3313SOL    HW2 9759   3.459   2.280   2.120  0.0420  1.2406 -0.2708
 3314SOL     OW 9760   4.655   3.351   2.713 -0.1410  0.2638  0.6013
 3314SOL    HW1 9761   4.565   3.378   2.678  0.2409  2.1130  0.9527
 3314SOL    HW2 9762   4.644   3.310   2.804 -0.7629 -0.9663 -0.0141
 3315SOL     OW 9763   2.256   0.860   2.872 -0.1033  0.2710 -0.0935
 3315SOL    HW1 9764   2.199   0.801   2.928 -0.9079 -0.3094 -1.4737
 3315SOL    HW2 9765   2.204   0.941   2.845 -0.4638 -0.4482 -1.6881
 3316SOL     OW 9766   2.010   4.523   4.063 -0.0193 -0.4636 -0.5619
 3316SOL    HW1 9767   2.051   4.438   4.096 -0.7276 -1.2033 -1.5459
 3316SOL    HW2 9768   2.071   4.564   3.995  1.1418  0.7393  1.1206
 3317SOL     OW 9769   4.014   5.011   4.301 -0.0507 -0.1741 -0.4310
 3317SOL    HW1 9770   4.065   4.928   4.327 -0.4157  0.0333  1.0061
 3317SOL    HW2 9771   3.941   5.028   4.367 -3.3523 -1.5298 -3.4067
 3318SOL     OW 9772   0.221   0.630   1.213 -0.1369 -0.4126 -0.5531
 3318SOL    HW1 9773   0.236   0.636   1.311 -2.4497  0.2214 -0.1742
 3318SOL    HW2 9774   0.192   0.537   1.190 -1.7001 -0.0464 -0.2296
 3319SOL     OW 9775   4.181   2.317   1.861 -0.1622 -0.0682  0.0466
 3319SOL    HW1 9776   4.176   2.415   1.882 -2.5168 -0.1459  0.1816
 3319SOL    HW2 9777   4.149   2.301   1.768  0.2865 -0.7003 -0.0056
 3320SOL     OW 9778   2.435   2.463   0.634  0.3595  1.2467  0.8777
 3320SOL    HW1 9779   2.343   2.479   0.597  0.5994 -0.0550 -0.4045
 3320SOL    HW2 9780   2.430   2.392   0.705  0.2785  1.7543  1.3868
 3321SOL     OW 9781   4.042   3.719   4.337  0.0169 -0.1540  0.2406
 3321SOL    HW1 9782   4.028   3.688   4.243 -0.6132  0.0753  0.2577
 3321SOL    HW2 9783   3.989   3.662   4.399 -1.3614  1.0946  0.2504
 3322SOL     OW 9784   0.252   1.619   3.001 -0.2472 -0.2515 -0.1538
 3322SOL    HW1 9785   0.295   1.582   3.083 -1.1023  0.8760  0.8349
 3322SOL    HW2 9786   0.167   1.665   3.025  0.2323  1.4340 -1.4370
 3323SOL     OW 9787   1.352   4.490   3.841  0.0163 -0.1208 -0.0246
 3323SOL    HW1 9788   1.280   4.452   3.782  0.9734 -0.4934 -0.9986
 3323SOL    HW2 9789   1.406   4.416   3.881  1.2244  0.1289 -1.0839
 3324SOL     OW 9790   1.371   2.144   2.198 -0.2449 -0.1728  0.4182
 3324SOL    HW1 9791   1.380   2.059   2.146  1.3170  0.4580 -0.4075
 3324SOL    HW2 9792   1.303   2.203   2.154 -0.7449 -0.6567  0.5319
 3325SOL     OW 9793   1.251   0.467   4.888 -0.1248 -0.6837 -0.3785
 3325SOL    HW1 9794   1.253   0.548   4.947 -0.6845 -1.1497  0.2870
 3325SOL    HW2 9795   1.179   0.405   4.918  0.1266 -1.3164 -1.0472
 3326SOL     OW 9796   1.513   2.207   3.825 -0.0310  0.0009 -0.3576
 3326SOL    HW1 9797   1.457   2.133   3.788 -0.1175 -0.0839 -0.0531
 3326SOL    HW2 9798   1.463   2.255   3.896  0.0866  0.2525 -0.4445
 3327SOL     OW 9799   2.983   2.823   1.167  0.0209  0.0495 -0.1342
 3327SOL    HW1 9800   3.040   2.879   1.227 -0.6661 -0.4134  0.9769
 3327SOL    HW2 9801   2.925   2.763   1.222 -0.2638 -0.7603 -1.2762
 3328SOL     OW 9802   1.056   4.991   2.923  0.2615  0.3144  0.0510
 3328SOL    HW1 9803   1.032   4.907   2.971  2.6908 -0.0495  0.7542
 3328SOL    HW2 9804   0.984   5.013   2.857 -0.1396 -2.7216 -0.6851
 3329SOL     OW 9805   2.259   4.593   2.458  0.2202  0.2888  0.2807
 3329SOL    HW1 9806   2.352   4.573   2.426  0.3068 -0.2691  0.8500
 3329SOL    HW2 9807   2.248   4.558   2.551 -1.7594 -3.2599 -1.0945
 3330SOL     OW 9808   3.997   4.457   1.405 -0.6153 -0.5588 -0.0326
 3330SOL    HW1 9809   3.932   4.512   1.352  0.3071 -0.1243 -0.7295
 3330SOL    HW2 9810   4.081   4.509   1.420 -0.0840 -1.4383  0.1039
 3331SOL     OW 9811   5.039   3.941   1.606 -0.3023  0.7948  0.2659
 3331SOL    HW1 9812   5.132   3.917   1.634 -0.2221  0.1188 -0.5662
 3331SOL    HW2 9813   5.031   4.041   1.601 -0.3560  0.9916  2.7630
 3332SOL     OW 9814   2.997   0.278   1.596  0.0363 -0.0073  0.0054
 3332SOL    HW1 9815   2.977   0.275   1.498 -0.7025  1.6069  0.0793
 3332SOL    HW2 9816   3.035   0.190   1.624  0.5948 -0.3905 -1.7847
 3333SOL     OW 9817   3.004   1.649   1.201  0.3916  0.6375 -0.3541
 3333SOL    HW1 9818   2.997   1.560   1.246  1.8268  0.6854  0.0134
 3333SOL    HW2 9819   2.997   1.637   1.102  3.0137 -0.2669 -0.5190
 3334SOL     OW 9820   1.632   2.466   3.075  0.4417  0.4252 -0.0904
 3334SOL    HW1 9821   1.583   2.527   3.138  0.1495 -0.7144  0.8114
 3334SOL    HW2 9822   1.570   2.398   3.039  0.8943  0.3036 -0.6524
 3335SOL     OW 9823   2.330   1.464   0.535  0.7821  0.1189 -0.0550
 3335SOL    HW1 9824   2.334   1.445   0.633 -1.1203  0.6138  0.1459
 3335SOL    HW2 9825   2.265   1.537   0.517  1.9654  0.8706 -1.6053
 3336SOL     OW 9826   4.675   1.504   3.545  0.5954  0.2267  0.1102
 3336SOL    HW1 9827   4.680   1.417   3.595  1.7031  0.4648  0.4426
 3336SOL    HW2 9828   4.704   1.578   3.606  0.3885  0.7301 -0.4022
 3337SOL     OW 9829   1.261   1.562   2.193 -0.7980 -0.5523 -0.1995
 3337SOL    HW1 9830   1.217   1.648   2.221 -0.4815 -0.0626 -1.1928
 3337SOL    HW2 9831   1.257   1.553   2.094 -0.7782 -1.6702 -0.1081
 3338SOL     OW 9832   0.226   0.989   0.907 -0.2740 -0.0638  0.0393
 3338SOL    HW1 9833   0.126   0.991   0.912 -0.3225  0.7015 -0.9028
 3338SOL    HW2 9834   0.263   0.950   0.991 -1.3606 -0.2905  0.4289
 3339SOL     OW 9835   0.680   2.204   4.854  0.0929 -0.5586 -0.1265
 3339SOL    HW1 9836   0.607   2.135   4.848 -0.1366 -0.6174  2.2414
 3339SOL    HW2 9837   0.766   2.159   4.879  0.6072 -0.2925 -1.3516
 3340SOL     OW 9838   2.208   1.315   3.376  0.4260 -0.9916 -0.3556
 3340SOL    HW1 9839   2.281   1.318   3.444  0.2120 -0.3136 -0.1491
 3340SOL    HW2 9840   2.245   1.341   3.287  0.2730  0.1499 -0.0952
 3341SOL     OW 9841   4.608   0.854   0.656 -0.3698  0.0838 -0.2085
 3341SOL    HW1 9842   4.636   0.832   0.749 -0.2090 -0.0974 -0.3010
 3341SOL    HW2 9843   4.661   0.932   0.623 -1.1197  0.7951  0.2135
 3342SOL     OW 9844   2.508   1.128   2.824  0.6035  0.3181 -0.1401
 3342SOL    HW1 9845   2.545   1.128   2.731  0.1013  1.5465 -0.3533
 3342SOL    HW2 9846   2.510   1.034   2.861  0.6998 -0.1981 -1.4200
 3343SOL     OW 9847   3.813   4.451   3.905 -0.1060 -0.0753  0.0498
 3343SOL    HW1 9848   3.807   4.388   3.982 -2.9038  0.3029  0.2440
 3343SOL    HW2 9849   3.841   4.541   3.938 -1.8258  0.2304  0.7891
 3344SOL     OW 9850   0.962   4.819   3.781 -0.1768  0.6763  0.2561
 3344SOL    HW1 9851   0.983   4.722   3.782  0.4686  0.7720 -1.2598
 3344SOL    HW2 9852   1.047   4.872   3.779 -0.5120  1.3063  1.5120
 3345SOL     OW 9853   4.086   1.625   3.588  0.0629 -0.1209 -0.0692
 3345SOL    HW1 9854   4.024   1.637   3.510 -0.5098 -2.5082 -0.0661
 3345SOL    HW2 9855   4.181   1.619   3.554 -0.0241  0.3785 -0.4109
 3346SOL     OW 9856   1.439   4.071   2.705  0.6108 -0.2180 -0.3089
 3346SOL    HW1 9857   1.519   4.011   2.700  0.5491 -0.4192  0.8282
 3346SOL    HW2 9858   1.364   4.022   2.749  0.3975  0.5290  0.1686
 3347SOL     OW 9859   4.085   0.704   3.821 -0.2433  0.2501 -0.4355
 3347SOL    HW1 9860   4.054   0.790   3.861 -0.3202  0.8847 -1.8256
 3347SOL    HW2 9861   4.112   0.718   3.726  2.1892 -0.7577  0.0471
 3348SOL     OW 9862   0.281   0.843   0.666  0.3905  0.0648  0.5289
 3348SOL    HW1 9863   0.224   0.889   0.599 -0.9270  1.7462  2.6615
 3348SOL    HW2 9864   0.256   0.874   0.758  0.5842 -3.7279  2.0367
 3349SOL     OW 9865   0.878   1.444   3.082 -0.2785 -0.0036 -0.0883
 3349SOL    HW1 9866   0.908   1.531   3.043 -1.2266 -0.0347 -0.9418
 3349SOL    HW2 9867   0.872   1.453   3.181 -0.0866  0.8196 -0.1400
 3350SOL     OW 9868   2.093   0.917   4.340  1.1627 -0.5966 -0.2665
 3350SOL    HW1 9869   2.185   0.884   4.320  0.2343 -3.2496 -0.5103
 3350SOL    HW2 9870   2.040   0.845   4.385 -0.9730  0.6629 -0.5935
 3351SOL     OW 9871   3.810   0.715   2.473  0.6993 -0.7698  0.5252
 3351SOL    HW1 9872   3.766   0.791   2.425  1.4182 -0.2267  0.7055
 3351SOL    HW2 9873   3.747   0.677   2.540 -0.1070 -1.1524 -0.4323
 3352SOL     OW 9874   0.951   3.102   1.095  0.0355  0.0757 -0.7429
 3352SOL    HW1 9875   1.021   3.091   1.025  0.6678  1.1774 -0.3163
 3352SOL    HW2 9876   0.863   3.073   1.059 -0.3596  3.6605 -3.2811
 3353SOL     OW 9877   1.494   2.830   0.043 -0.1190 -0.0799  0.8406
 3353SOL    HW1 9878   1.448   2.749   0.078 -1.6309  0.1314 -0.5472
 3353SOL    HW2 9879   1.429   2.885  -0.010  0.8805  1.9973  1.6457
 3354SOL     OW 9880   1.716   4.657   0.299 -0.2932  0.0775 -0.1662
 3354SOL    HW1 9881   1.712   4.747   0.342 -2.2828 -0.2729  0.4998
 3354SOL    HW2 9882   1.795   4.652   0.238 -0.1170  2.2524 -0.1832
 3355SOL     OW 9883   0.550   4.750   3.283 -0.8322 -0.3089 -0.5138
 3355SOL    HW1 9884   0.599   4.672   3.321  1.9573  2.8299  3.0947
 3355SOL    HW2 9885   0.606   4.795   3.213 -0.4977  0.7706  0.4242
 3356SOL     OW 9886   3.560   3.027   3.772  0.5094 -0.4018 -0.1634
 3356SOL    HW1 9887   3.474   2.998   3.813 -0.5466 -0.9608 -2.5877
 3356SOL    HW2 9888   3.567   3.127   3.777 -0.2281 -0.3605  0.1667
 3357SOL     OW 9889   0.158   5.022   3.258 -0.5420  0.7837  0.0718
 3357SOL    HW1 9890   0.145   4.932   3.218 -0.4428  0.7953  0.0114
 3357SOL    HW2 9891   0.089   5.039   3.328 -2.6621  1.9899 -2.1794
 3358SOL     OW 9892   1.564   1.725   1.228  0.2386 -0.1681 -0.1002
 3358SOL    HW1 9893   1.607   1.789   1.165 -0.4257 -0.5391 -0.9394
 3358SOL    HW2 9894   1.476   1.695   1.191  1.1218 -2.6052 -0.3766
 3359SOL     OW 9895   3.174   0.312   0.674  0.2691 -0.5317 -0.2778
 3359SOL    HW1 9896   3.104   0.299   0.603  0.8997 -1.3660 -0.7615
 3359SOL    HW2 9897   3.252   0.253   0.654  1.0062  0.2112  0.3996
 3360SOL     OW 9898   1.508   0.023   4.180 -0.1740 -0.3145 -0.1378
 3360SOL    HW1 9899   1.532  -0.072   4.200  0.3229  0.0617  1.1460
 3360SOL    HW2 9900   1.448   0.058   4.251 -1.1576  0.0578 -1.1174
 3361SOL     OW 9901   4.648   3.203   1.297  0.4334  0.0978  0.0499
 3361SOL    HW1 9902   4.740   3.213   1.259  0.2288  1.0813 -0.2363
 3361SOL    HW2 9903   4.623   3.107   1.301  1.4209 -0.1637 -0.0060
 3362SOL     OW 9904   4.512   1.320   2.853 -0.3132 -0.3572 -0.4530
 3362SOL    HW1 9905   4.529   1.415   2.828  0.3810 -0.4921 -0.4969
 3362SOL    HW2 9906   4.443   1.281   2.792 -1.0614  0.2961 -0.0434
 3363SOL     OW 9907   0.931   2.549   4.870  0.4442  0.0533 -0.1848
 3363SOL    HW1 9908   0.864   2.511   4.807  1.2202  0.6336 -1.4205
 3363SOL    HW2 9909   0.886   2.580   4.953 -0.2843 -3.0509  0.6959
 3364SOL     OW 9910   2.010   4.211   0.215  0.1258 -0.1775 -0.4973
 3364SOL    HW1 9911   2.024   4.297   0.165 -2.2693  0.4743 -0.1842
 3364SOL    HW2 9912   1.929   4.219   0.273  0.3086 -2.4005  0.1616
 3365SOL     OW 9913   4.407   3.753   2.065  0.0447  0.6754  0.4137
 3365SOL    HW1 9914   4.405   3.703   1.978  2.2666  1.1600  0.0379
 3365SOL    HW2 9915   4.375   3.846   2.050 -1.1338  0.3003  0.4831
 3366SOL     OW 9916   0.069   4.803   0.480  0.9221  0.4727  0.1140
 3366SOL    HW1 9917   0.152   4.753   0.454  0.1477 -0.2618 -1.0289
 3366SOL    HW2 9918   0.056   4.881   0.419  0.1580 -0.0977 -0.4742
 3367SOL     OW 9919   4.464   2.470   3.065 -0.0469  0.0507 -0.2279
 3367SOL    HW1 9920   4.552   2.445   3.026  0.3675  0.0069  0.7144
 3367SOL    HW2 9921   4.391   2.421   3.016  0.5298 -0.7312 -0.3232
 3368SOL     OW 9922   2.718   3.441   4.741 -0.0396 -0.2724  0.5225
 3368SOL    HW1 9923   2.749   3.414   4.650  1.8251 -0.5886  1.2073
 3368SOL    HW2 9924   2.625   3.478   4.735  0.3763  0.5709 -1.6472
 3369SOL     OW 9925   3.707   2.825   2.065  0.2066  0.2917  0.0312
 3369SOL    HW1 9926   3.767   2.836   1.986  0.8721  0.1592  0.5126
 3369SOL    HW2 9927   3.747   2.759   2.129 -0.7766 -0.3158  0.0473
 3370SOL     OW 9928   1.368   2.845   1.589 -0.0163  0.0449  0.3347
 3370SOL    HW1 9929   1.420   2.885   1.664  0.0603 -1.1908  0.9638
 3370SOL    HW2 9930   1.335   2.918   1.529  3.1507  0.8625 -0.6210
 3371SOL     OW 9931   1.416   0.033   2.301  0.2859 -0.1911  0.1122
 3371SOL    HW1 9932   1.353   0.044   2.224 -0.7657 -0.5201  0.8984
 3371SOL    HW2 9933   1.366  -0.003   2.380  1.1386  1.0054  1.2403
 3372SOL     OW 9934   2.400   3.696   1.662  0.2236 -0.1402 -0.4706
 3372SOL    HW1 9935   2.474   3.734   1.718 -0.4016 -2.2207  1.9181
 3372SOL    HW2 9936   2.439   3.636   1.592  0.8812  0.3598 -0.5411
 3373SOL     OW 9937   2.938   1.829   1.577 -0.3676  0.2796  0.8376
 3373SOL    HW1 9938   3.034   1.824   1.604 -0.0093 -0.1049 -0.4178
 3373SOL    HW2 9939   2.921   1.914   1.527 -0.4456 -0.0845  0.2354
 3374SOL     OW 9940   0.481   4.500   1.623 -0.3230  0.2071 -0.0618
 3374SOL    HW1 9941   0.570   4.501   1.578 -1.1840  0.3164 -1.8516
 3374SOL    HW2 9942   0.443   4.593   1.625 -0.8517  0.0008 -0.2701
 3375SOL     OW 9943   3.814   4.599   1.247 -0.3768  0.0381 -0.2056
 3375SOL    HW1 9944   3.763   4.532   1.194 -3.1975  0.3207  1.8728
 3375SOL    HW2 9945   3.811   4.688   1.202 -1.7169  0.0157 -0.1918
 3376SOL     OW 9946   4.923   2.972   2.890 -0.3316 -0.4876 -0.1221
 3376SOL    HW1 9947   4.889   2.878   2.885  0.0982 -0.6032 -1.1635
 3376SOL    HW2 9948   4.945   3.004   2.798  1.7780 -0.2103  0.4249
 3377SOL     OW 9949   3.602   2.095   4.132 -0.5533  0.5288 -0.4007
 3377SOL    HW1 9950   3.520   2.072   4.079 -0.6005 -0.7300  0.1638
 3377SOL    HW2 9951   3.683   2.059   4.084 -0.7891 -3.1540  1.5459
 3378SOL     OW 9952   2.962   4.288   2.481 -0.1124  0.0451 -0.3178
 3378SOL    HW1 9953   2.970   4.251   2.573 -0.4275 -1.3765 -0.8466
 3378SOL    HW2 9954   2.953   4.388   2.486 -0.3268 -0.0318  1.1931
 3379SOL     OW 9955   4.823   1.328   0.504  0.1548 -0.1584 -0.4261
 3379SOL    HW1 9956   4.837   1.422   0.535 -0.1781  0.1044 -1.0482
 3379SOL    HW2 9957   4.747   1.325   0.440  1.5528 -0.4769 -2.1465
 3380SOL     OW 9958   3.664   3.620   4.167  0.3269  0.1395  0.0638
 3380SOL    HW1 9959   3.763   3.613   4.155  0.4645  0.3183  1.0582
 3380SOL    HW2 9960   3.619   3.609   4.078  1.2301 -0.0180 -0.3829
 3381SOL     OW 9961   4.524   3.700   1.811 -0.0511  0.0246  0.9279
 3381SOL    HW1 9962   4.502   3.773   1.747  2.4276  1.2133  1.3292
 3381SOL    HW2 9963   4.615   3.715   1.850  0.2586 -2.8835  1.6005
 3382SOL     OW 9964   1.455   2.366   4.676  0.0310 -0.2154  0.2352
 3382SOL    HW1 9965   1.388   2.405   4.739 -0.3752  0.0231 -0.3424
 3382SOL    HW2 9966   1.541   2.417   4.683  0.7474 -1.5250  2.1877
 3383SOL     OW 9967   3.414   4.404   0.617  0.0126 -0.2562 -0.1599
 3383SOL    HW1 9968   3.493   4.380   0.561 -0.7861  0.2074 -1.5434
 3383SOL    HW2 9969   3.349   4.328   0.616 -0.7278  0.3717 -1.2289
 3384SOL     OW 9970   3.871   1.032   3.433 -0.2518  0.1857  0.2354
 3384SOL    HW1 9971   3.956   0.993   3.398  0.4453  2.5655 -0.9332
 3384SOL    HW2 9972   3.870   1.025   3.533  0.6650 -1.0792  0.1798
 3385SOL     OW 9973   1.664   1.908   1.053 -0.4746 -0.0538 -0.5193
 3385SOL    HW1 9974   1.661   1.882   0.957 -0.1773 -2.0176 -0.0318
 3385SOL    HW2 9975   1.603   1.986   1.069 -0.8125  0.0494 -2.2107
 3386SOL     OW 9976   1.765   2.893   0.109 -0.1388 -0.5754 -0.2065
 3386SOL    HW1 9977   1.759   2.953   0.188  1.1363 -0.7290  0.0228
 3386SOL    HW2 9978   1.674   2.857   0.088 -0.6910  0.3964  0.4460
 3387SOL     OW 9979   4.307   4.124   1.067 -0.0861 -0.0855 -0.0521
 3387SOL    HW1 9980   4.315   4.055   0.996 -0.1807 -1.0375  0.8409
 3387SOL    HW2 9981   4.364   4.098   1.145 -0.0394  0.9010  0.2551
 3388SOL     OW 9982   1.505   0.781   2.298  0.3341  1.0663  0.2401
 3388SOL    HW1 9983   1.405   0.776   2.302  0.3294  1.3117  0.4727
 3388SOL    HW2 9984   1.537   0.752   2.208  0.1832 -0.9941  0.8066
 3389SOL     OW 9985   4.369   1.771   2.188  1.0642 -0.0804  0.1771
 3389SOL    HW1 9986   4.458   1.772   2.232  0.6467 -0.3423  1.0448
 3389SOL    HW2 9987   4.330   1.864   2.189  0.3737 -0.3533  1.8117
 3390SOL     OW 9988   3.900   3.655   2.892  0.2156  0.3952 -0.2815
 3390SOL    HW1 9989   3.891   3.557   2.870 -0.7261  0.0454  1.4761
 3390SOL    HW2 9990   3.915   3.706   2.807 -0.1681 -1.1728 -1.3585
 3391SOL     OW 9991   0.803   1.424   4.090  0.2150 -0.1901  0.0540
 3391SOL    HW1 9992   0.785   1.484   4.012 -0.9295 -0.0288  0.4274
 3391SOL    HW2 9993   0.767   1.465   4.174 -1.4315 -1.7809  0.1877
 3392SOL     OW 9994   4.765   2.690   2.599 -0.2849  0.0333 -0.0937
 3392SOL    HW1 9995   4.795   2.633   2.676 -0.9660 -1.1905 -0.6982
 3392SOL    HW2 9996   4.674   2.727   2.618  0.0631  0.7653  0.2008
 3393SOL     OW 9997   0.449   4.983   4.091 -0.4149  0.3085 -0.6699
 3393SOL    HW1 9998   0.477   5.033   4.009  2.2286  1.5592  0.8640
 3393SOL    HW2 9999   0.530   4.950   4.140 -1.7926  0.6689  2.0641
 3394SOL     OW10000   3.962   3.281   0.737 -0.5417  0.3754 -0.8361
 3394SOL    HW110001   4.039   3.333   0.700 -0.7346  1.4497  0.1960
 3394SOL    HW210002   3.983   3.183   0.733 -0.0899  0.5142 -2.6434
 3395SOL     OW10003   3.993   2.776   3.006 -0.3802  0.4116 -0.0939
 3395SOL    HW110004   3.958   2.802   2.916  0.6825 -0.4868 -0.7977
 3395SOL    HW210005   4.027   2.681   3.003  1.6982  1.0686  0.6196
 3396SOL     OW10006   1.482   0.642   0.022 -1.0402  0.2243  0.0965
 3396SOL    HW110007   1.439   0.616   0.108 -0.6464  1.1802  0.5950
 3396SOL    HW210008   1.574   0.676   0.040 -0.1460 -1.5131 -0.9189
 3397SOL     OW10009   3.635   0.073   0.465  0.3948 -0.2978 -0.0482
 3397SOL    HW110010   3.602   0.135   0.394  1.3875  0.0661 -0.2139
 3397SOL    HW210011   3.559   0.020   0.501 -0.5122  1.1564  0.2384
 3398SOL     OW10012   4.384   1.243   1.595 -0.6423  0.2482 -0.4036
 3398SOL    HW110013   4.394   1.285   1.685  3.2672  1.2151 -1.1059
 3398SOL    HW210014   4.297   1.270   1.555 -1.2060  2.1868  1.8919
 3399SOL     OW10015   0.736   2.865   0.462  0.3965 -0.0097 -0.5410
 3399SOL    HW110016   0.820   2.881   0.410  0.9154 -0.8309  0.0034
 3399SOL    HW210017   0.758   2.861   0.560 -0.3012 -0.1140 -0.3805
 3400SOL     OW10018   2.379   0.834   4.374  0.3151 -0.1734 -1.3822
 3400SOL    HW110019   2.444   0.807   4.303 -0.3587  2.3900 -3.0932
 3400SOL    HW210020   2.420   0.905   4.431  1.7381 -3.6524  2.4912
 3401SOL     OW10021   0.765   3.429   0.906 -0.1187 -0.0294 -0.1114
 3401SOL    HW110022   0.846   3.389   0.949  0.4348  0.2103 -0.8997
 3401SOL    HW210023   0.750   3.385   0.817 -0.9205 -0.1456  0.0746
 3402SOL     OW10024   4.049   2.434   1.415 -0.4546 -0.0262  0.3089
 3402SOL    HW110025   4.036   2.521   1.463 -1.6401 -0.3537  0.6102
 3402SOL    HW210026   4.139   2.396   1.439 -0.7208  0.1641  1.7216
 3403SOL     OW10027   4.885   1.659   1.274  0.2730  0.0248  0.4010
 3403SOL    HW110028   4.864   1.636   1.179  1.2369  0.1727  0.1328
 3403SOL    HW210029   4.807   1.705   1.316 -0.0937  0.1312 -0.3798
 3404SOL     OW10030   1.364   4.714   4.965  0.1544  0.9332 -0.0443
 3404SOL    HW110031   1.348   4.685   5.060  1.9872 -0.7727 -0.1962
 3404SOL    HW210032   1.406   4.805   4.965  2.1471  0.0622  0.9375
 3405SOL     OW10033   3.429   4.462   1.286 -0.5327  0.4488 -0.1348
 3405SOL    HW110034   3.413   4.477   1.384  1.1958 -1.1368  0.4514
 3405SOL    HW210035   3.371   4.524   1.233 -3.1710 -0.1227  1.8339
 3406SOL     OW10036   4.760   3.755   1.933 -0.8836  0.0897  0.1698
 3406SOL    HW110037   4.847   3.805   1.924 -0.2990 -0.3169  2.6247
 3406SOL    HW210038   4.779   3.660   1.959 -2.0605 -0.1385  0.2301
 3407SOL     OW10039   1.803   4.137   2.349 -0.1467 -0.1526 -0.2407
 3407SOL    HW110040   1.870   4.188   2.402 -0.2557  0.0336 -0.2816
 3407SOL    HW210041   1.809   4.164   2.253  0.3735 -0.8342 -0.4049
 3408SOL     OW10042   0.377   3.343   3.977  0.0124  0.0157  0.1730
 3408SOL    HW110043   0.432   3.402   3.919  0.9424 -0.9810 -0.0012
 3408SOL    HW210044   0.407   3.248   3.967 -0.9834 -0.4135  0.9520
 3409SOL     OW10045   5.009   4.990   3.525 -0.3228  0.0834  0.1829
 3409SOL    HW110046   5.037   4.896   3.548  1.1197 -0.3789 -2.8941
 3409SOL    HW210047   4.910   4.993   3.509 -0.6221 -0.5298  1.7636
 3410SOL     OW10048   0.449   3.041   1.478  0.2153  0.2448 -0.5557
 3410SOL    HW110049   0.471   3.129   1.435 -0.3858  0.2402 -0.8738
 3410SOL    HW210050   0.520   2.974   1.455  0.7140  0.6656 -0.2489
 3411SOL     OW10051   3.607   4.463   2.337 -0.4281 -0.1307 -0.1593
 3411SOL    HW110052   3.521   4.493   2.295 -1.0141 -1.4472  0.0670
 3411SOL    HW210053   3.660   4.411   2.271 -0.1493  0.0161 -0.0554
 3412SOL     OW10054   0.123   2.590   0.543 -0.1174 -0.1768 -0.4297
 3412SOL    HW110055   0.057   2.522   0.513  0.2440 -0.4641 -0.5798
 3412SOL    HW210056   0.181   2.551   0.614 -0.4761  0.2576  0.1104
 3413SOL     OW10057   1.062   2.943   4.596  0.0675 -0.0764  0.0985
 3413SOL    HW110058   0.984   2.998   4.626  0.1079 -0.5826  1.1597
 3413SOL    HW210059   1.080   2.961   4.499 -1.3716  0.0380 -0.1638
 3414SOL     OW10060   4.971   2.837   1.403  0.0373 -0.5166 -0.4628
 3414SOL    HW110061   4.937   2.750   1.368  1.0324 -0.1779 -2.4303
 3414SOL    HW210062   5.004   2.893   1.327  0.8106  0.9822  0.9072
 3415SOL     OW10063   3.903   5.016   0.225  0.1849 -0.1998  0.1324
 3415SOL    HW110064   3.950   4.962   0.155 -0.0056  1.1069 -1.0542
 3415SOL    HW210065   3.896   5.111   0.194 -0.0055  0.3912  1.9000
 3416SOL     OW10066   0.571   1.174   1.523  0.2223 -0.2522 -0.3851
 3416SOL    HW110067   0.495   1.230   1.556 -0.0291 -0.9231  0.2024
 3416SOL    HW210068   0.549   1.136   1.433 -0.0823 -0.3269 -0.2796
 3417SOL     OW10069   3.692   3.255   1.101  0.0218 -0.4699  0.3853
 3417SOL    HW110070   3.632   3.218   1.030 -1.6890 -2.8501  2.8769
 3417SOL    HW210071   3.637   3.302   1.170  1.4858  0.5984  0.8787
 3418SOL     OW10072   4.521   4.595   2.591 -0.4175  0.5554 -0.3553
 3418SOL    HW110073   4.470   4.531   2.535  0.6184 -0.2156 -0.4405
 3418SOL    HW210074   4.619   4.573   2.588 -0.0809  1.8709 -0.0436
 3419SOL     OW10075   4.387   4.920   1.381  0.5973 -0.1882  0.2725
 3419SOL    HW110076   4.313   4.853   1.390  0.1173  0.5232  1.9761
 3419SOL    HW210077   4.412   4.929   1.284 -2.5478  0.5906 -0.5732
 3420SOL     OW10078   3.136   0.535   0.456 -0.3404 -0.1669  0.0236
 3420SOL    HW110079   3.226   0.492   0.460 -0.4428 -0.5086 -1.1002
 3420SOL    HW210080   3.065   0.465   0.467 -0.4878 -0.1319 -0.6659
 3421SOL     OW10081   4.766   4.079   4.166 -0.5139  0.5340  0.4549
 3421SOL    HW110082   4.843   4.138   4.143  0.1765  0.8003  3.0913
 3421SOL    HW210083   4.794   3.984   4.162 -0.1952  0.6082  0.8880
 3422SOL     OW10084   4.991   2.150   2.311 -0.2644  0.3566  0.0098
 3422SOL    HW110085   4.987   2.204   2.395 -1.5914 -0.9009  0.7882
 3422SOL    HW210086   4.907   2.164   2.258 -1.1706 -1.7551  0.7809
 3423SOL     OW10087   0.315   1.643   0.734 -0.6878 -0.5662 -0.7244
 3423SOL    HW110088   0.264   1.557   0.725 -0.4742 -0.8898  0.8217
 3423SOL    HW210089   0.274   1.699   0.806  0.0451 -0.0108 -0.7222
 3424SOL     OW10090   3.739   0.693   1.812 -0.6847  0.2825  0.2349
 3424SOL    HW110091   3.813   0.629   1.792 -0.3880  0.1629  1.6325
 3424SOL    HW210092   3.719   0.747   1.730 -0.9815 -1.6089 -0.9930
 3425SOL     OW10093   1.666   4.237   3.701  0.0055  0.8492 -0.4369
 3425SOL    HW110094   1.608   4.271   3.626  1.5274  1.2107 -1.5058
 3425SOL    HW210095   1.711   4.315   3.745  0.4464  0.4963 -0.2653
 3426SOL     OW10096   2.678   4.994   5.001 -0.0332  0.3217  0.2015
 3426SOL    HW110097   2.713   4.983   4.908 -0.1291  1.7847 -0.0324
 3426SOL    HW210098   2.744   4.957   5.066  0.6982  0.5867 -0.3757
 3427SOL     OW10099   4.864   3.815   1.108  0.1156 -0.1915  0.3899
 3427SOL    HW110100   4.903   3.899   1.147  0.5280 -1.1425  2.1653
 3427SOL    HW210101   4.792   3.782   1.168 -1.6937  0.1162 -1.5167
 3428SOL     OW10102   0.294   4.090   4.247 -0.1362 -0.0307 -0.1593
 3428SOL    HW110103   0.337   4.159   4.305 -1.2630  1.2637 -0.8117
 3428SOL    HW210104   0.324   3.999   4.276 -0.1784  0.5952  2.0347
 3429SOL     OW10105   5.018   2.505   2.121 -0.0397  0.2425 -0.2788
 3429SOL    HW110106   5.053   2.580   2.178 -0.8601  1.7785 -1.6873
 3429SOL    HW210107   4.924   2.484   2.147  0.5754 -1.2238  0.9384
 3430SOL     OW10108   1.454   4.388   1.795  0.4013  0.2931  0.3093
 3430SOL    HW110109   1.511   4.429   1.724  2.0071 -0.9213  0.8468
 3430SOL    HW210110   1.388   4.326   1.754  0.2899  0.7520 -0.2200
 3431SOL     OW10111   1.586   0.308   1.789  0.5046  0.0306  0.3844
 3431SOL    HW110112   1.539   0.390   1.756  1.2237  0.2086 -0.2382
 3431SOL    HW210113   1.531   0.264   1.860 -0.9176 -0.1340 -0.7553
 3432SOL     OW10114   3.838   2.323   1.975  0.2505 -0.3075 -0.1812
 3432SOL    HW110115   3.774   2.245   1.972 -3.0654  2.1281  1.0859
 3432SOL    HW210116   3.832   2.373   1.889  0.3291  0.0237  0.0066
 3433SOL     OW10117   0.259   0.391   3.992 -0.0760  1.0322 -0.4682
 3433SOL    HW110118   0.353   0.375   3.962 -0.4358 -1.2721 -0.5495
 3433SOL    HW210119   0.196   0.352   3.925 -1.1621  3.2066 -0.7981
 3434SOL     OW10120   0.934   0.526   1.042  0.7660  0.1676  0.1909
 3434SOL    HW110121   0.917   0.610   0.991  1.4085 -0.3542 -0.9203
 3434SOL    HW210122   0.901   0.447   0.990  2.3875 -0.4644  0.0444
 3435SOL     OW10123   3.992   1.758   2.532  0.5653  0.0312 -0.2987
 3435SOL    HW110124   4.085   1.736   2.562  1.2021  0.4495 -1.8302
 3435SOL    HW210125   3.971   1.706   2.449  0.3341  1.6694 -1.3094
 3436SOL     OW10126   2.239   1.776   1.080 -0.4014 -0.0674  0.0580
 3436SOL    HW110127   2.228   1.777   0.980  1.6926  0.0533 -0.2315
 3436SOL    HW210128   2.158   1.737   1.122 -2.0714  1.4428 -1.5636
 3437SOL     OW10129   0.584   4.678   0.736 -0.5569  0.4021  0.4147
 3437SOL    HW110130   0.663   4.726   0.773 -1.0692  1.1283  0.5840
 3437SOL    HW210131   0.503   4.738   0.740 -1.6716 -1.1142  2.4708
 3438SOL     OW10132   4.669   0.727   0.320 -0.0153  0.0466 -0.3412
 3438SOL    HW110133   4.599   0.764   0.381  0.3661 -0.5060  0.4439
 3438SOL    HW210134   4.667   0.777   0.233  1.0983  2.5830  0.9709
 3439SOL     OW10135   1.665   3.742   4.660 -0.2037 -0.5794 -0.1370
 3439SOL    HW110136   1.749   3.702   4.697 -0.1162 -3.9187 -3.3697
 3439SOL    HW210137   1.586   3.702   4.706 -0.0945  0.0475  0.6219
 3440SOL     OW10138   2.639   3.858   2.096  0.0977 -0.8814  0.3713
 3440SOL    HW110139   2.625   3.928   2.026  1.9106 -0.5718  0.2891
 3440SOL    HW210140   2.647   3.902   2.186 -1.0840 -1.1947  0.6571
 3441SOL     OW10141   3.175   0.804   3.880  0.1274  0.3456  0.1555
 3441SOL    HW110142   3.158   0.797   3.781 -0.0843  1.6828  0.0774
 3441SOL    HW210143   3.251   0.867   3.896  0.7759 -0.5860  0.8161
 3442SOL     OW10144   0.327   3.948   0.860  0.6943 -0.6103 -0.1301
 3442SOL    HW110145   0.375   3.979   0.778 -0.7687  1.0941 -0.3972
 3442SOL    HW210146   0.381   3.973   0.941  0.6228  0.6732 -0.4500
 3443SOL     OW10147   4.070   4.182   2.079 -0.4192  0.3515  0.2557
 3443SOL    HW110148   4.149   4.232   2.043 -1.6504  0.7484 -2.1112
 3443SOL    HW210149   4.019   4.242   2.142 -0.7907  1.4328 -1.0201
 3444SOL     OW10150   3.881   3.363   4.734  0.4807  0.1593  0.2444
 3444SOL    HW110151   3.958   3.301   4.747  1.8555  1.6144 -0.6827
 3444SOL    HW210152   3.826   3.365   4.818  1.6661 -0.5933  1.0648
 3445SOL     OW10153   1.792   3.237   4.381 -0.1910 -0.1102  0.7096
 3445SOL    HW110154   1.749   3.152   4.352 -0.4705 -0.1676  1.2780
 3445SOL    HW210155   1.865   3.261   4.317 -0.2641 -0.6527  0.4175
 3446SOL     OW10156   3.923   2.774   3.294  0.5642  0.7060  0.0014
 3446SOL    HW110157   3.919   2.776   3.194 -0.6732  2.1170  0.0496
 3446SOL    HW210158   3.969   2.856   3.327 -0.8470  1.2669  0.6359
 3447SOL     OW10159   0.314   3.926   2.471 -0.0683 -0.2908 -0.3415
 3447SOL    HW110160   0.337   3.830   2.457 -0.6107 -0.2513 -1.6517
 3447SOL    HW210161   0.353   3.957   2.558  0.0332 -1.7073  0.1515
 3448SOL     OW10162   0.749   1.135   1.704  0.1723 -0.2110  0.1475
 3448SOL    HW110163   0.837   1.177   1.685  0.8695 -1.4154  0.5804
 3448SOL    HW210164   0.682   1.166   1.637  0.9768  0.5504 -0.3279
 3449SOL     OW10165   2.710   0.104   2.418 -0.4457 -0.1187 -0.0302
 3449SOL    HW110166   2.669   0.194   2.435 -0.9507  0.2405 -2.6684
 3449SOL    HW210167   2.805   0.117   2.387 -1.1458 -0.2420 -2.4556
 3450SOL     OW10168   3.408   0.192   1.396 -0.1725 -0.6396  0.0890
 3450SOL    HW110169   3.429   0.288   1.415  0.1588 -0.3741 -1.5052
 3450SOL    HW210170   3.479   0.135   1.438 -1.2922 -0.3583  2.5480
 3451SOL     OW10171   4.817   2.813   3.713 -0.8087  0.5756 -0.0751
 3451SOL    HW110172   4.829   2.873   3.791 -0.2865  0.5855 -0.1636
 3451SOL    HW210173   4.847   2.859   3.630 -1.9682  0.8125 -0.3839
 3452SOL     OW10174   1.597   1.081   3.125 -0.0681 -0.0095 -0.4106
 3452SOL    HW110175   1.504   1.063   3.159 -0.8175  0.1445 -2.2332
 3452SOL    HW210176   1.638   1.156   3.178 -1.0294  0.0226  0.3275
 3453SOL     OW10177   0.500   3.007   4.927  0.2727 -0.1398  0.1877
 3453SOL    HW110178   0.541   3.001   4.837  0.7517 -0.1581  0.4036
 3453SOL    HW210179   0.478   3.103   4.948  0.7890 -0.0432  0.3201
 3454SOL     OW10180   0.860   1.386   2.761 -0.4980  0.1223 -0.2363
 3454SOL    HW110181   0.931   1.449   2.793 -1.4410  0.6574  0.8934
 3454SOL    HW210182   0.775   1.436   2.749 -1.1074 -0.8200  0.0949
 3455SOL     OW10183   0.250   0.907   4.789 -0.1140 -0.5231 -0.3978
 3455SOL    HW110184   0.168   0.886   4.735 -0.0134 -3.2596  0.3882
 3455SOL    HW210185   0.234   0.882   4.885  1.6321 -1.0712 -0.2275
 3456SOL     OW10186   4.565   2.818   1.540  0.1948  0.3095  0.1289
 3456SOL    HW110187   4.501   2.878   1.588  0.3269  0.0241  0.6748
 3456SOL    HW210188   4.643   2.797   1.600  0.9930  0.9588 -0.6745
 3457SOL     OW10189   2.305   3.608   0.197 -0.6054  0.0386 -0.0592
 3457SOL    HW110190   2.383   3.578   0.143  0.2162  0.1563  1.0128
 3457SOL    HW210191   2.321   3.585   0.293 -2.3813 -0.8752  0.0395
 3458SOL     OW10192   4.883   1.121   3.127  0.0382 -0.0242 -0.0347
 3458SOL    HW110193   4.969   1.083   3.162 -0.1129 -0.9229 -0.5932
 3458SOL    HW210194   4.827   1.152   3.204  0.7550  0.3495  0.3466
 3459SOL     OW10195   4.447   0.728   0.496 -0.0620 -0.4146 -0.2128
 3459SOL    HW110196   4.507   0.772   0.562  0.1239  0.3112 -0.8481
 3459SOL    HW210197   4.357   0.772   0.498  0.4267  0.7522 -1.5758
 3460SOL     OW10198   1.566   2.416   1.509  0.5100 -0.1040 -0.7317
 3460SOL    HW110199   1.569   2.321   1.476  0.7878  0.3549 -2.0936
 3460SOL    HW210200   1.650   2.436   1.560  0.1219 -0.7993  0.1999
 3461SOL     OW10201   4.830   2.480   1.059 -0.0346  0.8667 -0.7673
 3461SOL    HW110202   4.928   2.490   1.076  0.0265  1.4259 -1.4113
 3461SOL    HW210203   4.805   2.384   1.066  0.3934  0.8191  0.2566
 3462SOL     OW10204   2.599   0.372   3.137 -0.2090 -0.2288  0.1134
 3462SOL    HW110205   2.646   0.284   3.131  1.6592  0.6415  0.9006
 3462SOL    HW210206   2.531   0.369   3.210  2.2781 -0.0865  2.6353
 3463SOL     OW10207   1.761   0.728   3.883 -0.6823  0.2011 -0.0080
 3463SOL    HW110208   1.800   0.811   3.923 -1.1512  0.3154  0.2181
 3463SOL    HW210209   1.720   0.672   3.955 -0.8503  0.0393 -0.2262
 3464SOL     OW10210   1.880   2.005   0.770 -0.2839  0.1948 -0.2576
 3464SOL    HW110211   1.923   2.013   0.860 -1.6834  2.2301  0.3174
 3464SOL    HW210212   1.811   1.932   0.773  0.4011 -0.4608 -0.0269
 3465SOL     OW10213   4.978   4.074   1.900 -0.4447 -0.7540  0.3394
 3465SOL    HW110214   4.949   4.032   1.814 -1.6212  0.1108  0.2873
 3465SOL    HW210215   5.074   4.098   1.895 -0.2766 -1.5536 -0.3889
 3466SOL     OW10216   4.870   3.313   0.420  0.3745 -0.0041  0.1461
 3466SOL    HW110217   4.906   3.250   0.351 -1.9966  0.1463 -1.3132
 3466SOL    HW210218   4.806   3.264   0.479 -1.3506  0.9158 -0.8878
 3467SOL     OW10219   2.118   0.801   0.858 -0.0696 -0.2401 -0.0615
 3467SOL    HW110220   2.198   0.794   0.917  0.4975  0.2991 -0.7530
 3467SOL    HW210221   2.146   0.829   0.766 -0.9202 -1.1246 -0.6196
 3468SOL     OW10222   0.035   3.212   0.069 -0.2230  0.1417  0.0399
 3468SOL    HW110223   0.005   3.306   0.054 -0.3221 -0.0342 -0.8942
 3468SOL    HW210224   0.087   3.180  -0.010  0.4104 -0.3621  0.6423
 3469SOL     OW10225   2.799   4.597   1.592 -0.0171  0.0365 -0.3213
 3469SOL    HW110226   2.782   4.671   1.526 -0.5207 -0.4783 -0.7704
 3469SOL    HW210227   2.802   4.635   1.684  0.0921  0.6743 -0.5826
 3470SOL     OW10228   0.249   0.178   0.109 -0.3501 -0.0037 -0.2825
 3470SOL    HW110229   0.271   0.168   0.206 -1.0887 -0.4348 -0.1495
 3470SOL    HW210230   0.271   0.093   0.061  1.3717  0.6849 -0.7824
 3471SOL     OW10231   3.549   0.998   1.154  0.0775  0.4795  0.0014
 3471SOL    HW110232   3.585   1.089   1.135  0.1578  0.8705  1.7902
 3471SOL    HW210233   3.598   0.930   1.100  2.1254  1.2014  0.8567
 3472SOL     OW10234   0.538   4.715   1.935 -0.7591 -0.1945 -0.2878
 3472SOL    HW110235   0.487   4.794   1.900 -1.9133 -0.2516  1.1727
 3472SOL    HW210236   0.475   4.639   1.952  0.2695 -1.2950 -1.2153
 3473SOL     OW10237   2.590   0.559   2.652  0.1514  0.0302  0.0307
 3473SOL    HW110238   2.624   0.631   2.713 -1.4404 -2.4182  4.1934
 3473SOL    HW210239   2.654   0.482   2.652  0.6041  0.3346 -2.3524
 3474SOL     OW10240   1.519   1.442   1.860 -0.3218  0.0949 -0.5987
 3474SOL    HW110241   1.606   1.486   1.882 -0.6125  0.0398  0.7333
 3474SOL    HW210242   1.508   1.438   1.760  0.9644  0.5429 -0.7783
 3475SOL     OW10243   4.447   1.608   1.737 -0.3840 -0.2015 -0.0904
 3475SOL    HW110244   4.404   1.520   1.753 -0.4571 -0.5734 -2.0987
 3475SOL    HW210245   4.400   1.655   1.662  0.0872  1.2536  0.4833
 3476SOL     OW10246   1.457   3.641   3.977 -0.2039 -0.9036 -0.5526
 3476SOL    HW110247   1.554   3.645   4.003 -0.1891  1.4148 -0.7567
 3476SOL    HW210248   1.423   3.549   3.991  2.0790 -1.8343 -0.6373
 3477SOL     OW10249   0.802   3.390   3.976  0.7126  0.1254 -0.7315
 3477SOL    HW110250   0.838   3.447   3.903  0.4197 -1.4522 -2.1824
 3477SOL    HW210251   0.746   3.317   3.937 -0.7845  0.1456  1.1853
 3478SOL     OW10252   3.037   4.221   4.786  0.5960  0.3602 -0.0855
 3478SOL    HW110253   3.025   4.135   4.736  0.0505 -0.3763  1.2589
 3478SOL    HW210254   3.084   4.287   4.727  1.2186 -0.9151 -1.0839
 3479SOL     OW10255   3.013   4.738   0.242 -0.1281 -0.0618 -0.2168
 3479SOL    HW110256   3.048   4.781   0.325  0.9371  0.3323 -0.8484
 3479SOL    HW210257   2.939   4.675   0.265  0.4812 -0.3246  1.0788
 3480SOL     OW10258   3.289   1.629   0.436 -0.0893 -0.0655 -0.2013
 3480SOL    HW110259   3.379   1.621   0.479 -0.1173 -1.0057 -0.3040
 3480SOL    HW210260   3.300   1.633   0.336 -0.2557 -2.4929 -0.3688
 3481SOL     OW10261   3.307   1.491   2.822 -0.1221 -0.3869 -0.1809
 3481SOL    HW110262   3.357   1.570   2.787  0.9239 -0.1880  1.6425
 3481SOL    HW210263   3.215   1.519   2.848  0.0549  0.0972 -0.0753
 3482SOL     OW10264   4.728   4.548   0.860 -0.3807 -0.0273  0.0628
 3482SOL    HW110265   4.645   4.512   0.901 -1.0520  0.0690 -1.1452
 3482SOL    HW210266   4.781   4.473   0.820 -0.2608 -0.0115  0.1937
 3483SOL     OW10267   1.337   3.140   3.127  0.2326  0.3580  0.2318
 3483SOL    HW110268   1.313   3.142   3.030  0.3882  1.9806  0.2068
 3483SOL    HW210269   1.277   3.202   3.178 -1.3313 -2.0628  1.5760
 3484SOL     OW10270   1.618   4.371   2.018  0.3867  0.1965  0.3233
 3484SOL    HW110271   1.559   4.379   1.937 -0.3417 -0.3750  0.7887
 3484SOL    HW210272   1.682   4.448   2.020  1.0174 -0.2408 -1.2741
 3485SOL     OW10273   3.529   4.716   0.569 -0.0116 -0.1963 -0.2487
 3485SOL    HW110274   3.591   4.689   0.494  0.5908  1.2531 -0.2987
 3485SOL    HW210275   3.457   4.647   0.578  0.6184 -1.0450 -1.3295
 3486SOL     OW10276   4.176   1.903   3.396  0.0840 -0.2452  0.1056
 3486SOL    HW110277   4.262   1.865   3.364 -0.5498 -1.4673 -0.2161
 3486SOL    HW210278   4.106   1.831   3.397 -1.4405  1.1062 -1.5161
 3487SOL     OW10279   1.873   2.559   3.010  0.4186  0.0028  0.3863
 3487SOL    HW110280   1.782   2.527   3.036 -0.9115  1.0005 -2.6432
 3487SOL    HW210281   1.899   2.518   2.922  1.5434  2.0342 -0.2938
 3488SOL     OW10282   1.754   0.806   2.531  0.0863  0.3356 -1.1730
 3488SOL    HW110283   1.687   0.734   2.549 -1.0390  1.6611  0.2326
 3488SOL    HW210284   1.713   0.874   2.470  0.2335  1.0079 -0.5360
 3489SOL     OW10285   2.130   1.633   4.228 -0.1059 -0.4426  0.0761
 3489SOL    HW110286   2.150   1.670   4.137 -0.6071 -0.8155 -0.1883
 3489SOL    HW210287   2.087   1.705   4.284 -2.2150 -0.9112 -0.8327
 3490SOL     OW10288   3.419   4.854   1.255 -0.1753 -0.3449  0.5399
 3490SOL    HW110289   3.381   4.772   1.212  0.1910 -0.9224  1.2917
 3490SOL    HW210290   3.472   4.906   1.188  0.1022 -1.0496  0.2048
 3491SOL     OW10291   0.522   2.593   1.008 -0.0482  0.7301 -0.1981
 3491SOL    HW110292   0.567   2.510   1.042 -0.5408  0.2389 -0.7199
 3491SOL    HW210293   0.514   2.589   0.909 -0.8720  0.9909 -0.1508
 3492SOL     OW10294   1.278   3.821   4.113  0.4718 -0.3472 -0.1017
 3492SOL    HW110295   1.338   3.827   4.193  1.0057 -0.5274 -0.4818
 3492SOL    HW210296   1.328   3.779   4.038 -0.1832 -0.6223 -0.3850
 3493SOL     OW10297   3.466   1.969   2.829 -0.0746 -0.4691 -0.6202
 3493SOL    HW110298   3.478   2.032   2.906 -0.3154 -0.4735 -0.5800
 3493SOL    HW210299   3.493   1.877   2.856 -0.3326 -0.5046 -0.4888
 3494SOL     OW10300   4.297   4.306   1.966 -0.4700 -0.1362  0.0581
 3494SOL    HW110301   4.368   4.249   2.009 -0.8834  0.0886  1.0568
 3494SOL    HW210302   4.335   4.396   1.945  0.3737 -0.9109 -2.0934
 3495SOL     OW10303   4.445   2.607   1.907  0.5640 -0.1559 -0.0572
 3495SOL    HW110304   4.430   2.562   1.820  2.1586  1.5814 -1.3196
 3495SOL    HW210305   4.514   2.557   1.959  1.7047  0.3075 -1.0766
 3496SOL     OW10306   0.476   1.737   3.313  0.0674  0.6395  0.3838
 3496SOL    HW110307   0.456   1.642   3.286  2.0729  0.2230  0.1632
 3496SOL    HW210308   0.393   1.780   3.349 -1.5312 -0.3698 -1.8589
 3497SOL     OW10309   4.040   1.996   0.217  0.0511 -0.6866  0.0617
 3497SOL    HW110310   4.135   2.000   0.186 -0.3967 -1.2258 -1.4959
 3497SOL    HW210311   3.996   2.084   0.201  0.4865 -0.1611  1.5787
 3498SOL     OW10312   4.626   1.946   3.868  0.0275  0.3124 -0.6697
 3498SOL    HW110313   4.641   2.043   3.886  0.5587  0.2927 -0.9644
 3498SOL    HW210314   4.545   1.934   3.811  0.1435  0.6101 -0.8997
 3499SOL     OW10315   0.791   0.876   3.510  0.3418 -0.6788 -0.6257
 3499SOL    HW110316   0.771   0.968   3.544 -0.5145 -1.4294  0.9834
 3499SOL    HW210317   0.837   0.883   3.421  1.8385  1.3444  0.2218
 3500SOL     OW10318   0.652   3.070   1.945 -0.2312 -0.1973  0.6658
 3500SOL    HW110319   0.575   3.070   2.009 -2.8825 -1.8319 -2.2416
 3500SOL    HW210320   0.617   3.076   1.851  3.2480 -0.7694 -0.8168
 3501SOL     OW10321   0.877   3.951   0.323 -0.7084  0.4161  0.0149
 3501SOL    HW110322   0.970   3.971   0.294 -0.5481 -0.3707 -0.0241
 3501SOL    HW210323   0.822   4.034   0.316  0.0339  0.9359  0.2378
 3502SOL     OW10324   4.872   2.964   3.930  0.2519  0.1673  0.0882
 3502SOL    HW110325   4.821   3.036   3.976 -0.3695 -1.8727  2.8522
 3502SOL    HW210326   4.965   2.959   3.968 -0.3881 -1.7926  1.5575
 3503SOL     OW10327   4.122   4.436   3.632  0.3692 -0.2000  0.2891
 3503SOL    HW110328   4.109   4.467   3.538 -0.8505  0.6677  0.7140
 3503SOL    HW210329   4.147   4.514   3.690 -0.5131 -0.4055  0.9709
 3504SOL     OW10330   4.367   1.559   0.549  0.2696 -0.2303 -0.4372
 3504SOL    HW110331   4.428   1.590   0.621  0.1383  0.1603 -0.4897
 3504SOL    HW210332   4.272   1.570   0.579  0.2193 -1.1774 -0.2096
 3505SOL     OW10333   3.334   0.830   1.140 -0.0182 -0.0548 -0.3902
 3505SOL    HW110334   3.411   0.894   1.142 -0.0798  0.0256 -0.5226
 3505SOL    HW210335   3.360   0.747   1.090  0.1122 -0.1990 -0.0806
 3506SOL     OW10336   0.918   3.305   1.278 -0.3274 -0.4106  0.0168
 3506SOL    HW110337   0.975   3.280   1.356  0.0448 -1.0502 -0.4487
 3506SOL    HW210338   0.932   3.239   1.204  1.0817  1.4504 -1.4536
 3507SOL     OW10339   0.336   4.207   2.125 -0.4202 -0.2885  0.1321
 3507SOL    HW110340   0.283   4.125   2.149 -0.4924  0.0630  1.2263
 3507SOL    HW210341   0.292   4.288   2.165  1.4556 -0.0877  1.8894
 3508SOL     OW10342   0.460   0.419   3.622  0.0926 -0.2013  0.4379
 3508SOL    HW110343   0.540   0.430   3.680  0.9571 -0.5247 -0.6686
 3508SOL    HW210344   0.476   0.463   3.533 -1.1387  0.1449  0.3685
 3509SOL     OW10345   4.192   0.840   2.245 -0.8003  0.1079  0.0820
 3509SOL    HW110346   4.143   0.821   2.329 -0.1983 -0.1792  0.3754
 3509SOL    HW210347   4.239   0.928   2.253 -0.7663  0.0944  0.0354
 3510SOL     OW10348   3.230   4.752   0.732 -0.2736  0.3022  0.1010
 3510SOL    HW110349   3.270   4.831   0.780 -0.9002  1.0884 -0.6322
 3510SOL    HW210350   3.271   4.668   0.767  0.4476  0.9485  0.8741
 3511SOL     OW10351   4.144   4.174   2.432  0.0003  0.2398  0.0104
 3511SOL    HW110352   4.089   4.177   2.349 -2.9652 -0.8320  1.7802
 3511SOL    HW210353   4.137   4.083   2.474  0.0532  1.1896  2.2359
 3512SOL     OW10354   1.007   0.587   3.878 -0.2224 -0.0124  0.1543
 3512SOL    HW110355   0.990   0.494   3.847  0.1593  0.3870 -1.3361
 3512SOL    HW210356   1.023   0.646   3.799  1.0217  1.0193  1.1330
 3513SOL     OW10357   2.684   4.927   2.610  0.0027 -0.4809  0.0938
 3513SOL    HW110358   2.674   5.010   2.556  2.6704  0.3500  0.7414
 3513SOL    HW210359   2.628   4.934   2.693 -0.4015  0.3269 -0.2384
 3514SOL     OW10360   2.526   3.691   2.398  0.5860 -0.5807  0.3796
 3514SOL    HW110361   2.463   3.624   2.358  0.1242 -0.0718  0.2520
 3514SOL    HW210362   2.489   3.723   2.485  1.0667 -0.8779  0.7007
 3515SOL     OW10363   0.143   2.749   0.881 -0.7416 -0.2056  0.1453
 3515SOL    HW110364   0.059   2.772   0.832 -0.7171  1.5926  0.8905
 3515SOL    HW210365   0.209   2.823   0.870  0.0444 -0.7389  1.1510
 3516SOL     OW10366   1.523   1.494   1.590 -0.0488  0.2808  0.6260
 3516SOL    HW110367   1.537   1.592   1.579 -0.7176  0.4177  0.9882
 3516SOL    HW210368   1.554   1.447   1.507  0.5364  0.7649  0.5606
 3517SOL     OW10369   0.242   2.236   1.189 -0.1070 -0.0153 -0.7065
 3517SOL    HW110370   0.221   2.271   1.098  0.8517  1.4981 -0.3854
 3517SOL    HW210371   0.236   2.311   1.255 -0.3044 -0.9868  0.4012
 3518SOL     OW10372   3.921   3.274   2.546  0.0271  0.1520 -0.2137
 3518SOL    HW110373   3.837   3.253   2.595 -0.3538 -0.7929 -1.2212
 3518SOL    HW210374   3.930   3.373   2.536  0.4465  0.4100  2.2569
 3519SOL     OW10375   4.949   2.351   0.624  0.0267  0.2811 -0.0053
 3519SOL    HW110376   4.917   2.337   0.531 -0.8199  1.6914  0.0268
 3519SOL    HW210377   4.873   2.386   0.680  1.2993  2.6598  0.3654
 3520SOL     OW10378   2.691   1.052   3.473  0.2031 -0.2246 -0.0594
 3520SOL    HW110379   2.748   1.134   3.461 -1.2031  1.1208  1.7676
 3520SOL    HW210380   2.740   0.985   3.529  0.6913  0.1529 -0.0286
 3521SOL     OW10381   3.673   0.192   1.538  0.1021  0.5014 -0.1157
 3521SOL    HW110382   3.765   0.228   1.522  0.2552  0.0597 -0.2440
 3521SOL    HW210383   3.667   0.100   1.502 -0.0925  0.1540  0.7685
 3522SOL     OW10384   3.749   3.919   1.518  0.2049  0.2774  0.1041
 3522SOL    HW110385   3.796   3.835   1.542 -1.1732 -0.4451  0.3591
 3522SOL    HW210386   3.793   3.960   1.438 -0.0326 -1.5099 -0.9962
 3523SOL     OW10387   3.681   0.895   2.682  0.1386 -0.6837 -0.0005
 3523SOL    HW110388   3.652   0.801   2.662 -0.3921 -0.6230  0.4855
 3523SOL    HW210389   3.627   0.959   2.627  0.4371 -0.6497 -0.2620
 3524SOL     OW10390   0.721   0.567   1.833 -0.3470 -0.3035  0.3394
 3524SOL    HW110391   0.797   0.622   1.870  1.5837 -0.0470 -3.4831
 3524SOL    HW210392   0.653   0.628   1.794 -0.0339 -0.5716 -0.6383
 3525SOL     OW10393   3.410   2.656   0.445 -0.2053 -0.3183 -0.9429
 3525SOL    HW110394   3.399   2.627   0.350  0.2742 -1.1216 -0.7635
 3525SOL    HW210395   3.438   2.578   0.500 -1.2239 -0.0354  0.0071
 3526SOL     OW10396   2.937   0.569   4.425  0.2863 -0.3908 -0.4513
 3526SOL    HW110397   3.029   0.568   4.463  0.5046 -1.0712 -0.9790
 3526SOL    HW210398   2.939   0.536   4.330 -0.5371 -0.7479 -0.3579
 3527SOL     OW10399   0.765   2.655   4.256 -0.6862  0.2976 -0.1563
 3527SOL    HW110400   0.780   2.570   4.207 -2.5922 -1.3057  1.8448
 3527SOL    HW210401   0.797   2.645   4.351 -2.0259  1.3767  0.4371
 3528SOL     OW10402   1.639   3.700   0.994 -0.0179  0.3728  0.4106
 3528SOL    HW110403   1.720   3.686   1.050  0.1837 -1.6590 -0.3227
 3528SOL    HW210404   1.557   3.688   1.050  0.1334  1.9576  1.0394
 3529SOL     OW10405   4.861   2.545   2.797  0.0949 -0.0035 -0.0831
 3529SOL    HW110406   4.938   2.573   2.739 -1.0441  0.6202 -1.3360
 3529SOL    HW210407   4.847   2.614   2.869 -0.3108  0.7323 -0.8524
 3530SOL     OW10408   0.695   4.886   0.169 -0.2543  0.2325  0.4915
 3530SOL    HW110409   0.669   4.817   0.101  0.3084  0.9074 -0.4363
 3530SOL    HW210410   0.691   4.977   0.128 -2.0382  0.9081  1.9936
 3531SOL     OW10411   0.508   3.723   0.989  0.8337 -0.2619  0.0270
 3531SOL    HW110412   0.416   3.688   1.012  0.3263  1.9557  1.7051
 3531SOL    HW210413   0.521   3.719   0.890 -0.8190 -1.2058 -0.2006
 3532SOL     OW10414   2.528   2.018   4.719 -0.0543  0.1408 -0.2991
 3532SOL    HW110415   2.465   2.010   4.641 -0.0934  0.3394 -0.2893
 3532SOL    HW210416   2.593   2.092   4.702  0.4561 -0.3476 -0.5034
 3533SOL     OW10417   2.906   2.610   0.959  0.2876  0.6180  0.3072
 3533SOL    HW110418   2.901   2.662   0.874 -0.5695 -0.1825 -0.1524
 3533SOL    HW210419   2.939   2.669   1.033 -0.2801  1.6970 -0.2869
 3534SOL     OW10420   4.406   3.078   4.274 -0.5779 -0.5196  0.5137
 3534SOL    HW110421   4.422   2.987   4.237 -0.2673 -0.4104  0.3747
 3534SOL    HW210422   4.313   3.083   4.311 -0.3286 -1.1368  1.2529
 3535SOL     OW10423   3.803   2.069   2.337 -0.2219 -0.3918  0.0269
 3535SOL    HW110424   3.791   2.158   2.379  0.3590 -1.0743  1.7276
 3535SOL    HW210425   3.751   2.064   2.252 -0.2597  1.5423 -0.0959
 3536SOL     OW10426   3.849   3.956   4.059  0.7807  0.3776  0.1630
 3536SOL    HW110427   3.857   3.881   3.994  0.0446 -1.2749  1.8692
 3536SOL    HW210428   3.755   3.961   4.092  0.8320  2.0560  0.1076
 3537SOL     OW10429   3.368   0.829   4.803  0.0408 -0.3386 -0.3741
 3537SOL    HW110430   3.344   0.755   4.866 -0.1204 -0.4510 -0.5665
 3537SOL    HW210431   3.391   0.791   4.714  0.5893 -0.2016 -0.2899
 3538SOL     OW10432   2.008   3.278   1.034  0.2369 -0.2870  0.1311
 3538SOL    HW110433   1.915   3.314   1.040  0.6478  1.0438 -1.0170
 3538SOL    HW210434   2.063   3.314   1.109  1.1876  3.3583 -2.0789
 3539SOL     OW10435   3.907   2.256   2.829  0.4327 -0.4111 -0.1487
 3539SOL    HW110436   3.817   2.263   2.871  1.3534  0.2938  1.8045
 3539SOL    HW210437   3.903   2.190   2.754 -2.2546  1.3470 -1.7580
 3540SOL     OW10438   1.293   0.705   1.877  0.2396  0.3316 -0.4717
 3540SOL    HW110439   1.278   0.804   1.886 -1.1213  0.0985  0.1042
 3540SOL    HW210440   1.205   0.659   1.865  0.9248 -0.7452 -1.5783
 3541SOL     OW10441   4.834   2.669   0.508  0.1142  0.4178  0.6316
 3541SOL    HW110442   4.747   2.718   0.507  0.5572  1.3341 -2.5163
 3541SOL    HW210443   4.816   2.570   0.515 -1.1456  0.6173  0.5489
 3542SOL     OW10444   3.785   1.702   0.034  0.0063  0.6009  0.4179
 3542SOL    HW110445   3.866   1.760   0.026  0.3034  0.2856  1.0196
 3542SOL    HW210446   3.798   1.619  -0.020  0.3613  0.2559  1.0250
 3543SOL     OW10447   2.161   0.168   1.556 -0.1562  0.0932 -0.0604
 3543SOL    HW110448   2.165   0.143   1.459 -0.8709  0.5846 -0.2202
 3543SOL    HW210449   2.253   0.164   1.595 -0.1500 -2.3012 -0.1903
 3544SOL     OW10450   4.754   2.423   1.497 -0.1533 -0.2919 -0.7623
 3544SOL    HW110451   4.685   2.368   1.448  0.0145 -0.9145 -0.3081
 3544SOL    HW210452   4.728   2.432   1.593  0.5989 -0.8787 -0.4938
 3545SOL     OW10453   0.969   4.120   1.902 -0.0624  0.1788  0.1632
 3545SOL    HW110454   1.065   4.092   1.908  0.9390  3.2703  0.6138
 3545SOL    HW210455   0.940   4.117   1.806  0.7179 -0.0882 -0.0762
 3546SOL     OW10456   4.572   1.672   4.320  0.3584 -0.7055  0.3342
 3546SOL    HW110457   4.493   1.612   4.334  0.0148 -0.4380 -0.4116
 3546SOL    HW210458   4.589   1.682   4.222  0.6034  0.1772  0.4643
 3547SOL     OW10459   4.902   0.902   2.258 -0.0778  0.0023  0.3141
 3547SOL    HW110460   4.971   0.962   2.297  0.1603 -0.0001 -0.1018
 3547SOL    HW210461   4.931   0.807   2.268  0.2187  0.0228 -0.3085
 3548SOL     OW10462   1.896   4.936   3.680 -0.0858 -0.5279 -0.3829
 3548SOL    HW110463   1.934   4.938   3.773  0.6353 -0.4052 -0.6740
 3548SOL    HW210464   1.883   4.841   3.652  0.7289 -0.5888 -0.5667
 3549SOL     OW10465   1.172   4.409   1.288 -0.3432 -0.3198 -0.5100
 3549SOL    HW110466   1.225   4.376   1.209 -0.5200 -1.6572 -0.1010
 3549SOL    HW210467   1.229   4.469   1.344  0.1324 -0.2440 -1.0607
 3550SOL     OW10468   4.213   0.284   3.994  0.4706 -0.1331 -0.6790
 3550SOL    HW110469   4.212   0.222   4.073 -1.0950 -1.8391 -1.9431
 3550SOL    HW210470   4.177   0.373   4.021 -3.7330 -1.7809 -0.1515
 3551SOL     OW10471   2.366   1.672   2.655  0.2470 -0.2729  0.0791
 3551SOL    HW110472   2.309   1.618   2.593  2.3192 -1.6241 -0.7317
 3551SOL    HW210473   2.390   1.759   2.611 -0.8466  0.1532  0.2892
 3552SOL     OW10474   1.544   0.680   3.485 -0.0430  0.0558 -0.0164
 3552SOL    HW110475   1.462   0.715   3.440 -1.3967 -1.2405  1.3212
 3552SOL    HW210476   1.616   0.667   3.417 -0.7046  1.8240 -1.1252
 3553SOL     OW10477   1.042   3.621   3.100  0.0411  0.1588  0.4197
 3553SOL    HW110478   1.124   3.606   3.155  0.3928  0.1199 -0.1043
 3553SOL    HW210479   1.039   3.554   3.026 -1.2078 -0.7527  1.2731
 3554SOL     OW10480   4.650   0.920   3.651 -0.0636 -0.0891  0.1260
 3554SOL    HW110481   4.584   0.884   3.585 -0.9590 -0.2023  1.0540
 3554SOL    HW210482   4.645   0.866   3.736  2.0119 -0.8059 -0.1504
 3555SOL     OW10483   2.543   1.556   2.805  0.3736 -0.3189 -0.3559
 3555SOL    HW110484   2.606   1.492   2.761 -0.1181  0.0321 -1.6039
 3555SOL    HW210485   2.494   1.608   2.736 -1.2192 -0.5096  0.5788
 3556SOL     OW10486   1.654   3.305   0.507 -0.0263  0.3324 -0.1594
 3556SOL    HW110487   1.747   3.329   0.534  0.2127 -1.3406  0.6333
 3556SOL    HW210488   1.656   3.222   0.452 -0.9573  1.0887 -1.3967
 3557SOL     OW10489   4.541   1.382   3.104  0.2109  0.0637  0.2511
 3557SOL    HW110490   4.529   1.353   3.009  1.0416 -0.5385  0.3237
 3557SOL    HW210491   4.528   1.305   3.165 -1.1716  0.6319  0.6981
 3558SOL     OW10492   3.873   4.922   0.473  0.5347  0.4192  0.5777
 3558SOL    HW110493   3.886   4.943   0.376  0.5520  0.8666  0.6756
 3558SOL    HW210494   3.793   4.970   0.507 -0.4841 -1.0477  0.3835
 3559SOL     OW10495   0.767   2.904   4.995  0.1033  0.2398  0.4503
 3559SOL    HW110496   0.671   2.923   4.973  0.3196  0.5694 -0.2508
 3559SOL    HW210497   0.826   2.953   4.930  0.7829  1.3054  1.8232
 3560SOL     OW10498   2.857   3.931   0.708  0.0705 -0.4095  0.0837
 3560SOL    HW110499   2.820   3.842   0.731  0.5365 -0.4795  0.5918
 3560SOL    HW210500   2.804   4.002   0.755  1.3281 -0.5764  1.8986
 3561SOL     OW10501   3.260   1.977   2.254  0.0279 -0.0377 -0.2129
 3561SOL    HW110502   3.221   1.887   2.275  0.9987 -0.3849  0.1924
 3561SOL    HW210503   3.250   2.037   2.333  1.3399 -0.5153  0.3654
 3562SOL     OW10504   4.203   4.336   4.332  0.0209  0.1893 -0.0262
 3562SOL    HW110505   4.219   4.286   4.247  0.5207 -0.5759  0.5080
 3562SOL    HW210506   4.110   4.319   4.365 -0.5607  1.3700 -0.9827
 3563SOL     OW10507   3.081   2.445   3.316 -0.4175 -0.4149  0.4684
 3563SOL    HW110508   3.073   2.432   3.415 -1.1064  0.5832  0.5655
 3563SOL    HW210509   3.133   2.529   3.298  1.0472 -1.3901 -0.0558
 3564SOL     OW10510   3.444   2.081   3.850 -0.3988  0.1352 -0.2415
 3564SOL    HW110511   3.427   2.176   3.825  0.3321  0.5056  0.6386
 3564SOL    HW210512   3.451   2.026   3.767  0.9942  1.1648 -0.8553
 3565SOL     OW10513   3.826   2.299   3.451 -0.6147  0.2575 -0.9830
 3565SOL    HW110514   3.785   2.271   3.538 -0.5828 -0.3180 -1.1461
 3565SOL    HW210515   3.839   2.398   3.450  0.2095  0.1730  0.0233
 3566SOL     OW10516   2.422   2.324   4.970  0.0728 -0.2443 -0.3851
 3566SOL    HW110517   2.337   2.340   4.920 -1.6090 -1.4783  1.8968
 3566SOL    HW210518   2.431   2.226   4.991  1.3822  0.0414  0.5675
 3567SOL     OW10519   0.855   3.173   2.079 -0.4796  0.4000  0.3728
 3567SOL    HW110520   0.803   3.219   2.151 -0.2540  2.2155 -0.5723
 3567SOL    HW210521   0.793   3.143   2.007 -0.3820  1.3417 -0.1111
 3568SOL     OW10522   0.998   0.747   4.338  0.5259  0.2224  0.3115
 3568SOL    HW110523   1.038   0.699   4.260 -0.1929 -0.5419  0.3959
 3568SOL    HW210524   0.945   0.825   4.306 -0.7429 -0.7717 -0.0778
 3569SOL     OW10525   1.046   2.527   1.615  0.6137 -0.4856 -0.2011
 3569SOL    HW110526   0.979   2.594   1.645  0.6005  0.0048 -1.2964
 3569SOL    HW210527   1.110   2.569   1.551  0.4163 -1.5761 -1.1550
 3570SOL     OW10528   2.289   4.539   1.305 -0.2269 -0.5415  0.6058
 3570SOL    HW110529   2.192   4.557   1.316  0.0066  0.3475  1.3861
 3570SOL    HW210530   2.340   4.625   1.318  0.7226 -1.1829  1.2426
 3571SOL     OW10531   0.497   0.394   3.119  0.0031 -0.0168  0.5408
 3571SOL    HW110532   0.559   0.444   3.059 -0.5563 -0.3843 -0.3637
 3571SOL    HW210533   0.412   0.375   3.070  0.5464 -2.7021  0.5273
 3572SOL     OW10534   1.451   0.099   4.663 -0.3948 -0.2735  0.3306
 3572SOL    HW110535   1.391   0.019   4.658 -2.1841  1.0565 -0.8480
 3572SOL    HW210536   1.438   0.145   4.751 -0.7809 -0.2526  0.2667
 3573SOL     OW10537   1.282   1.567   1.914 -0.4615  0.0318  0.4730
 3573SOL    HW110538   1.322   1.648   1.872 -1.9058  1.2494  1.3839
 3573SOL    HW210539   1.353   1.496   1.922  1.5087  2.0289  1.9205
 3574SOL     OW10540   3.989   1.217   4.252 -0.0489 -0.6246  0.2893
 3574SOL    HW110541   4.023   1.129   4.286  0.1021  0.0779  2.0673
 3574SOL    HW210542   3.978   1.280   4.329  1.6638  1.5628 -1.1364
 3575SOL     OW10543   0.420   4.362   3.788 -0.4433  0.1723 -0.0750
 3575SOL    HW110544   0.366   4.428   3.735  0.1224 -0.7864 -1.9334
 3575SOL    HW210545   0.369   4.277   3.799  0.3249 -0.4535 -1.1436
 3576SOL     OW10546   1.168   0.424   2.568  0.3910  0.0407 -0.3372
 3576SOL    HW110547   1.251   0.422   2.624 -0.3854  2.3036  1.0326
 3576SOL    HW210548   1.177   0.492   2.496 -0.5367  0.8867  0.3222
 3577SOL     OW10549   3.227   4.937   3.958 -0.0214  0.1640  0.0424
 3577SOL    HW110550   3.293   4.979   4.020  0.1836  0.4422 -0.3588
 3577SOL    HW210551   3.228   4.837   3.969  1.1407  0.0895 -0.6157
 3578SOL     OW10552   0.323   1.078   0.104  0.0934  0.0598 -0.4364
 3578SOL    HW110553   0.420   1.070   0.082 -0.0151  0.8575 -1.2665
 3578SOL    HW210554   0.281   0.988   0.103  1.0143 -0.4213  0.9150
 3579SOL     OW10555   1.323   0.625   4.527 -0.6352  0.3392  0.0183
 3579SOL    HW110556   1.241   0.575   4.555 -0.9228  0.3501 -0.7974
 3579SOL    HW210557   1.397   0.561   4.508 -0.8921  0.2378 -0.6607
 3580SOL     OW10558   0.865   1.824   3.593  0.2204 -0.0175  0.2246
 3580SOL    HW110559   0.882   1.836   3.495  0.6951  0.7683  0.3921
 3580SOL    HW210560   0.828   1.909   3.631  1.4513  0.1946  1.0116
 3581SOL     OW10561   1.887   0.982   3.961 -0.0853 -0.3794  0.0973
 3581SOL    HW110562   1.837   0.994   3.875  0.4961  0.9364 -0.0814
 3581SOL    HW210563   1.836   1.026   4.035 -0.0467 -0.5562  0.2284
 3582SOL     OW10564   0.550   0.131   2.730  0.3553 -0.0901 -0.1592
 3582SOL    HW110565   0.611   0.133   2.810 -1.9786 -1.4215  1.7590
 3582SOL    HW210566   0.529   0.037   2.706 -1.8743  0.3067  0.0183
 3583SOL     OW10567   4.273   3.645   0.365  0.3198  0.6666 -0.3111
 3583SOL    HW110568   4.218   3.562   0.363  1.2992 -0.0180  0.1335
 3583SOL    HW210569   4.369   3.621   0.381  0.4729  1.9541  0.8824
 3584SOL     OW10570   3.751   1.670   1.861 -0.2788 -0.2633 -0.0688
 3584SOL    HW110571   3.843   1.650   1.895  0.0379 -0.2161 -0.8748
 3584SOL    HW210572   3.691   1.593   1.882 -0.3020  0.1124  1.3200
 3585SOL     OW10573   1.269   0.333   0.707  0.5139  0.1618 -0.0891
 3585SOL    HW110574   1.252   0.403   0.777 -2.3738 -1.2372  0.8109
 3585SOL    HW210575   1.279   0.244   0.752 -0.7489 -0.6701 -1.3721
 3586SOL     OW10576   0.968   2.528   2.040  0.0456  0.1621 -0.0544
 3586SOL    HW110577   0.934   2.503   2.131 -0.8564 -0.2473 -0.4824
 3586SOL    HW210578   0.960   2.627   2.027  1.3120  0.3795  0.7480
 3587SOL     OW10579   2.221   2.239   3.732  0.2940  0.1531  0.0727
 3587SOL    HW110580   2.274   2.316   3.767  0.3005  0.3132 -0.2819
 3587SOL    HW210581   2.141   2.224   3.790 -0.9703  1.8868 -1.1303
 3588SOL     OW10582   2.573   1.003   0.047  0.0351 -0.2219  0.1379
 3588SOL    HW110583   2.585   1.000  -0.053 -0.8402 -0.8216  0.0368
 3588SOL    HW210584   2.511   1.078   0.071 -0.9463 -0.9983  0.0843
 3589SOL     OW10585   2.076   0.191   0.629  0.0605  0.8902  0.1069
 3589SOL    HW110586   2.033   0.277   0.604  0.5283  1.4533  1.2052
 3589SOL    HW210587   2.052   0.167   0.723  0.8870  0.4371  0.2174
 3590SOL     OW10588   3.518   1.084   2.993 -0.0085 -0.2351 -0.7186
 3590SOL    HW110589   3.526   0.985   2.989  2.7299 -0.1428  0.4947
 3590SOL    HW210590   3.581   1.125   2.927  0.6793  0.6789  0.4659
 3591SOL     OW10591   1.291   4.702   3.392  0.6098 -0.3120  0.3468
 3591SOL    HW110592   1.195   4.720   3.367  1.8603  1.9752 -3.7864
 3591SOL    HW210593   1.319   4.766   3.464 -0.7111 -0.3733  0.9406
 3592SOL     OW10594   3.857   0.055   3.636  0.0831  0.2068  0.2484
 3592SOL    HW110595   3.805  -0.028   3.614 -0.8121  1.1752 -1.4807
 3592SOL    HW210596   3.793   0.128   3.661  0.6915  1.0314 -0.5445
 3593SOL     OW10597   3.137   2.352   0.713 -0.0254 -0.0662  0.3031
 3593SOL    HW110598   3.226   2.354   0.759 -1.1281 -0.3091  2.5689
 3593SOL    HW210599   3.064   2.370   0.779 -1.8484 -2.0759 -1.0004
 3594SOL     OW10600   1.501   1.789   2.241 -0.2463 -0.1515 -0.0646
 3594SOL    HW110601   1.451   1.788   2.154  1.9019  0.5420 -1.3815
 3594SOL    HW210602   1.595   1.759   2.225  1.4400  3.8069  1.1568
 3595SOL     OW10603   1.282   4.149   4.420  0.0944 -0.2522  0.2602
 3595SOL    HW110604   1.332   4.202   4.489  1.2987 -1.1651  0.1244
 3595SOL    HW210605   1.260   4.208   4.342  3.4002 -0.3418 -0.9176
 3596SOL     OW10606   4.715   3.801   2.487  0.9535  0.0917  0.7850
 3596SOL    HW110607   4.694   3.761   2.398  0.2046  2.1620 -0.0048
 3596SOL    HW210608   4.687   3.737   2.559 -0.0488 -0.8772 -0.4231
 3597SOL     OW10609   3.488   2.155   1.198 -0.2703  0.1027 -0.0571
 3597SOL    HW110610   3.553   2.080   1.187 -0.0251  0.4802 -1.2783
 3597SOL    HW210611   3.538   2.241   1.210 -0.5072 -0.0609  3.0340
 3598SOL     OW10612   3.853   4.482   1.874 -0.4077 -0.5087 -0.4469
 3598SOL    HW110613   3.883   4.511   1.965 -0.8461 -1.8384  0.1648
 3598SOL    HW210614   3.933   4.464   1.817 -0.0912 -0.8730  0.0956
 3599SOL     OW10615   4.961   4.604   2.579 -0.4177 -0.1692 -0.2516
 3599SOL    HW110616   5.009   4.657   2.509 -2.5492  1.9202 -0.2545
 3599SOL    HW210617   4.891   4.547   2.535  0.4114 -1.3913 -0.0467
 3600SOL     OW10618   1.532   2.037   1.870  0.0411  0.5331 -0.5084
 3600SOL    HW110619   1.590   2.098   1.923  0.3729 -0.5356  0.3964
 3600SOL    HW210620   1.436   2.066   1.877  0.0503  0.2760  0.8871
 3601SOL     OW10621   3.136   2.680   2.974 -0.1266 -1.2338 -0.8495
 3601SOL    HW110622   3.177   2.606   2.920  1.5553 -1.0615  0.1137
 3601SOL    HW210623   3.156   2.768   2.930 -1.4120 -1.2619 -1.5477
 3602SOL     OW10624   2.875   2.646   4.363  0.2588  0.0951 -0.3105
 3602SOL    HW110625   2.797   2.689   4.318 -0.2843 -0.0025  0.5125
 3602SOL    HW210626   2.884   2.552   4.331 -0.0326  0.0711 -0.3270
 3603SOL     OW10627   2.980   1.552   3.347 -0.6014 -0.1466  0.0723
 3603SOL    HW110628   3.031   1.482   3.396 -1.8645 -1.2344 -0.1092
 3603SOL    HW210629   3.041   1.627   3.323  0.5054 -0.5862  1.3947
 3604SOL     OW10630   4.198   4.050   3.907 -0.3093  0.6528 -0.0089
 3604SOL    HW110631   4.258   4.024   3.983  0.0238  0.3368 -0.3813
 3604SOL    HW210632   4.206   3.984   3.833 -3.2449 -1.0948  1.0269
 3605SOL     OW10633   2.356   0.767   0.973  0.4730  0.2932 -0.0060
 3605SOL    HW110634   2.379   0.814   1.058 -0.7506  2.1051 -0.6301
 3605SOL    HW210635   2.419   0.690   0.960  0.8421  0.1140  2.3891
 3606SOL     OW10636   3.066   0.335   2.266 -0.6865  0.1901  0.2964
 3606SOL    HW110637   3.147   0.309   2.212  0.2565  3.2425  0.0683
 3606SOL    HW210638   3.016   0.407   2.217 -1.2529  1.2208  2.3183
 3607SOL     OW10639   3.620   4.149   0.995  0.4444  0.0657 -0.3436
 3607SOL    HW110640   3.703   4.140   0.940  1.9564  1.0672  1.6832
 3607SOL    HW210641   3.635   4.108   1.085 -1.4626 -0.1968 -0.0998
 3608SOL     OW10642   3.126   2.991   1.315  0.3731 -0.3235 -0.1170
 3608SOL    HW110643   3.071   3.069   1.345  0.8521 -0.8446  2.3544
 3608SOL    HW210644   3.223   3.015   1.322  0.5241 -0.2754 -1.9585
 3609SOL     OW10645   3.392   4.003   1.994  0.5284 -0.1846  0.0292
 3609SOL    HW110646   3.327   4.002   1.917  0.0819 -0.2297  0.3991
 3609SOL    HW210647   3.369   3.928   2.057 -0.0497  0.7519  0.9644
 3610SOL     OW10648   2.197   0.663   4.627  0.3782  0.1248 -0.3469
 3610SOL    HW110649   2.206   0.640   4.530  1.4331 -1.4453  0.0942
 3610SOL    HW210650   2.102   0.647   4.656 -0.1969  1.5521 -1.3100
 3611SOL     OW10651   4.183   4.849   3.568 -0.2917 -0.0413  0.1074
 3611SOL    HW110652   4.173   4.948   3.575 -2.0030  0.0386 -2.1488
 3611SOL    HW210653   4.251   4.827   3.497 -0.8724 -0.4514 -0.3330
 3612SOL     OW10654   1.513   2.942   2.211  0.2822  0.2979  0.5862
 3612SOL    HW110655   1.505   2.934   2.311 -0.5342  2.0258  0.7084
 3612SOL    HW210656   1.609   2.957   2.187  1.2151 -4.3085  0.6481
 3613SOL     OW10657   4.506   4.640   3.846  0.1441  0.5326 -0.0084
 3613SOL    HW110658   4.579   4.709   3.849  1.4601 -0.8526  0.8270
 3613SOL    HW210659   4.521   4.579   3.769 -0.6232  0.7250 -0.3219
 3614SOL     OW10660   1.372   4.383   0.300  0.4225  0.2697  0.0767
 3614SOL    HW110661   1.399   4.464   0.248 -0.8934  0.7837  0.1490
 3614SOL    HW210662   1.397   4.300   0.250  2.0129  0.6893  0.1164
 3615SOL     OW10663   4.127   0.078   3.597  0.2694 -0.0993 -0.0689
 3615SOL    HW110664   4.152   0.156   3.656 -0.3523  2.1059 -2.5517
 3615SOL    HW210665   4.030   0.057   3.610  1.0503 -2.7004  2.8999
 3616SOL     OW10666   1.182   3.587   1.295 -0.1396 -0.4604 -0.0246
 3616SOL    HW110667   1.248   3.519   1.325 -0.3410 -0.8420 -0.4255
 3616SOL    HW210668   1.114   3.602   1.367  1.1351  0.9512  0.9457
 3617SOL     OW10669   1.093   4.340   0.311 -0.3190 -0.4079  0.4567
 3617SOL    HW110670   1.057   4.390   0.232  0.2202  1.4457  1.3185
 3617SOL    HW210671   1.189   4.367   0.326 -0.4843 -0.5362  1.8722
 3618SOL     OW10672   2.749   1.063   4.584 -0.4921 -0.4346 -0.1799
 3618SOL    HW110673   2.665   1.078   4.532 -0.7639 -0.4122  0.2634
 3618SOL    HW210674   2.799   0.987   4.544 -0.7070 -0.4302 -0.4644
 3619SOL     OW10675   4.639   0.813   4.107 -0.1398 -0.0617 -0.2815
 3619SOL    HW110676   4.693   0.746   4.158  0.7328 -0.4128 -1.6076
 3619SOL    HW210677   4.654   0.904   4.145  3.2949  0.2434 -1.9282
 3620SOL     OW10678   0.431   2.046   1.110 -0.5349 -0.1910 -0.5593
 3620SOL    HW110679   0.388   2.136   1.111  0.8901  0.5361  1.2345
 3620SOL    HW210680   0.468   2.027   1.019 -2.5033  0.1504 -1.4883
 3621SOL     OW10681   0.382   2.654   1.219 -0.1598 -0.4937 -0.0347
 3621SOL    HW110682   0.440   2.628   1.296 -0.6126  0.0847  0.5088
 3621SOL    HW210683   0.424   2.622   1.133  0.2277 -1.3536  0.4616
 3622SOL     OW10684   1.228   4.108   3.150 -0.0229  0.0750  0.4392
 3622SOL    HW110685   1.260   4.038   3.086  0.1718  0.3243  0.2623
 3622SOL    HW210686   1.262   4.087   3.242 -0.5142 -0.4249  0.5151
 3623SOL     OW10687   0.840   3.877   4.326 -0.0491  0.6353  0.2598
 3623SOL    HW110688   0.903   3.937   4.377 -0.7748 -0.5419  2.6929
 3623SOL    HW210689   0.890   3.797   4.294  0.1779  0.8243  0.1377
 3624SOL     OW10690   1.724   0.090   1.044  0.3679 -0.0507 -0.2543
 3624SOL    HW110691   1.729   0.185   1.074 -0.8390  0.5173 -1.7256
 3624SOL    HW210692   1.735   0.029   1.122  0.6909  1.2974  0.7809
 3625SOL     OW10693   3.085   3.311   2.328 -0.3678  0.1773 -0.3322
 3625SOL    HW110694   3.181   3.291   2.311 -0.3194  1.6472 -2.1071
 3625SOL    HW210695   3.034   3.225   2.336  1.0966 -0.6174  0.8867
 3626SOL     OW10696   1.826   4.222   2.073 -0.4229 -0.2929  0.2626
 3626SOL    HW110697   1.850   4.162   1.996  0.9316  1.7230 -1.0203
 3626SOL    HW210698   1.750   4.281   2.046 -0.4617 -0.1144  0.7683
 3627SOL     OW10699   1.224   4.870   3.802  0.3794  0.7212 -0.2616
 3627SOL    HW110700   1.266   4.798   3.857 -1.9509  0.4119  1.2470
 3627SOL    HW210701   1.280   4.887   3.721  2.5872 -0.6086  0.8883
 3628SOL     OW10702   0.012   1.443   3.575 -0.0315  0.3196  0.1573
 3628SOL    HW110703  -0.044   1.430   3.493  0.3113  1.0749 -0.2082
 3628SOL    HW210704  -0.013   1.375   3.643  0.0126 -0.6368 -0.7532
 3629SOL     OW10705   1.266   3.486   0.003  0.0298  0.0053 -0.0894
 3629SOL    HW110706   1.278   3.523  -0.090  0.3900  0.2484  0.0494
 3629SOL    HW210707   1.353   3.490   0.051  0.1080 -1.1750 -0.1145
 3630SOL     OW10708   4.940   0.632   2.204  0.2278  0.2857 -0.0944
 3630SOL    HW110709   4.857   0.598   2.248 -0.8864  0.8976 -1.6580
 3630SOL    HW210710   4.982   0.559   2.150 -0.0234  0.3305 -0.3520
 3631SOL     OW10711   3.748   4.123   3.830 -0.2336  0.2697  0.5102
 3631SOL    HW110712   3.832   4.146   3.781  1.0952  1.9839  3.3380
 3631SOL    HW210713   3.771   4.082   3.918 -2.3928  0.3837  1.1846
 3632SOL     OW10714   2.707   3.882   0.364 -0.2975  0.3001  0.0787
 3632SOL    HW110715   2.800   3.848   0.348 -0.7050 -0.7543 -0.1700
 3632SOL    HW210716   2.660   3.821   0.428 -0.4232  1.5197  1.1770
 3633SOL     OW10717   4.062   0.972   1.746 -0.6361  0.2279  0.0804
 3633SOL    HW110718   4.067   0.891   1.688  0.7217  0.2447  0.1500
 3633SOL    HW210719   4.118   0.959   1.827 -1.2340  0.8424  0.6061
 3634SOL     OW10720   1.561   0.021   0.828 -0.1035  0.1260 -0.4447
 3634SOL    HW110721   1.592   0.054   0.917 -1.4845  3.2984 -1.0031
 3634SOL    HW210722   1.596   0.082   0.756 -1.6625 -0.4433 -1.7475
 3635SOL     OW10723   1.081   0.947   3.798 -0.2610 -0.4326  0.1775
 3635SOL    HW110724   1.159   0.885   3.803 -0.2460 -0.3131  1.8335
 3635SOL    HW210725   1.008   0.904   3.746  1.6844  0.3958 -3.6950
 3636SOL     OW10726   4.630   2.396   4.078 -0.0475 -0.3626  0.3246
 3636SOL    HW110727   4.540   2.412   4.119 -0.6266 -0.6349 -0.7667
 3636SOL    HW210728   4.669   2.483   4.049 -0.2737 -0.3034  0.1905
 3637SOL     OW10729   4.729   3.576   4.911 -0.6700 -0.2621  0.0227
 3637SOL    HW110730   4.679   3.522   4.979  0.7029 -0.0591  1.2119
 3637SOL    HW210731   4.792   3.516   4.861  1.5423  0.3114  1.9785
 3638SOL     OW10732   3.040   2.424   4.078  0.1149 -0.0660  0.3382
 3638SOL    HW110733   3.114   2.366   4.111 -0.2774 -0.6884  0.1430
 3638SOL    HW210734   2.961   2.415   4.138 -0.5022 -0.9867 -0.5900
 3639SOL     OW10735   2.604   0.531   4.324 -0.2907 -0.2591  0.1597
 3639SOL    HW110736   2.627   0.624   4.294  0.0366  0.2059  1.7621
 3639SOL    HW210737   2.626   0.521   4.421 -1.8003 -1.5264  0.4104
 3640SOL     OW10738   3.308   3.905   2.560  0.6345  0.1798 -0.0797
 3640SOL    HW110739   3.224   3.909   2.506 -0.6125  0.7054  1.8104
 3640SOL    HW210740   3.341   3.997   2.579  0.8647  0.0190  0.3312
 3641SOL     OW10741   3.507   1.484   2.578 -0.1543 -0.0258  0.3321
 3641SOL    HW110742   3.434   1.417   2.570 -0.0820 -0.0378 -0.2303
 3641SOL    HW210743   3.564   1.482   2.496  1.3665 -1.0630  1.3442
 3642SOL     OW10744   0.604   1.686   4.003  0.6462 -0.8716  0.3717
 3642SOL    HW110745   0.598   1.649   3.910  0.3305 -0.8435  0.3797
 3642SOL    HW210746   0.522   1.661   4.054  0.6539 -0.5770  0.5285
 3643SOL     OW10747   3.485   0.479   3.918 -0.1257  0.2250  0.1106
 3643SOL    HW110748   3.417   0.544   3.953 -0.7435 -0.5065  0.2921
 3643SOL    HW210749   3.510   0.415   3.991 -0.9907 -0.9608 -0.6131
 3644SOL     OW10750   1.340   4.093   3.428 -0.3339 -0.3200 -0.2400
 3644SOL    HW110751   1.260   4.101   3.487 -0.5099  0.3370 -0.5617
 3644SOL    HW210752   1.397   4.017   3.460  0.3277  0.9214  1.6732
 3645SOL     OW10753   0.313   3.230   0.614  0.2257 -0.4366  0.3448
 3645SOL    HW110754   0.217   3.222   0.588  0.3701  0.0555 -0.3526
 3645SOL    HW210755   0.366   3.160   0.567  0.6018  0.9003 -1.3457
 3646SOL     OW10756   4.289   4.975   3.893  0.3679  0.1298 -0.3006
 3646SOL    HW110757   4.215   4.916   3.860  0.0619  0.0148  0.5492
 3646SOL    HW210758   4.263   5.013   3.982  1.4683 -0.1732  0.1627
 3647SOL     OW10759   2.221   3.210   1.540 -0.5793  0.6533  0.4281
 3647SOL    HW110760   2.308   3.244   1.505  1.6575 -1.9264  2.9675
 3647SOL    HW210761   2.199   3.257   1.625 -1.1866  0.6168  0.2976
 3648SOL     OW10762   4.721   1.511   2.087  0.0036 -0.0794 -0.0074
 3648SOL    HW110763   4.732   1.605   2.120 -0.9520  0.0820 -0.1084
 3648SOL    HW210764   4.691   1.452   2.162 -0.1986 -0.1336 -0.1298
 3649SOL     OW10765   3.854   2.812   2.749  0.4960  0.2044 -0.2968
 3649SOL    HW110766   3.869   2.759   2.665  1.1126  0.4552 -0.3540
 3649SOL    HW210767   3.837   2.908   2.724  0.9133  0.3244 -0.1301
 3650SOL     OW10768   2.644   3.815   3.664 -0.0669 -0.0170 -0.2034
 3650SOL    HW110769   2.717   3.883   3.653 -0.6795  0.6022 -0.5495
 3650SOL    HW210770   2.609   3.819   3.757 -0.6251  0.6916 -0.4386
 3651SOL     OW10771   0.834   1.719   0.866 -0.6036  0.5688 -0.0783
 3651SOL    HW110772   0.755   1.747   0.811 -1.3166 -0.7587  0.2210
 3651SOL    HW210773   0.814   1.733   0.963  0.1057  1.5804 -0.0634
 3652SOL     OW10774   1.293   2.732   4.330  0.3655  1.0271  0.3706
 3652SOL    HW110775   1.325   2.733   4.425  1.2356  0.5533  0.0920
 3652SOL    HW210776   1.289   2.825   4.296  2.8064  1.0551 -0.0089
 3653SOL     OW10777   0.169   2.310   0.932 -0.4129  0.0114  0.4647
 3653SOL    HW110778   0.209   2.376   0.868 -2.8882  0.7371 -0.4608
 3653SOL    HW210779   0.121   2.238   0.881  1.1180 -1.8252  1.4930
 3654SOL     OW10780   3.600   3.872   4.139 -0.6442  0.1005  0.4222
 3654SOL    HW110781   3.643   3.784   4.158 -1.5726 -0.4444  0.0502
 3654SOL    HW210782   3.503   3.859   4.123 -0.5297  0.9944 -1.1848
 3655SOL     OW10783   2.290   2.529   3.919  0.1268  0.3266  0.3297
 3655SOL    HW110784   2.361   2.598   3.905 -0.8676  1.3304  0.0920
 3655SOL    HW210785   2.303   2.486   4.008  0.8305  0.7520  0.4376
 3656SOL     OW10786   3.634   2.484   0.106 -0.0411  0.2988  1.0217
 3656SOL    HW110787   3.733   2.499   0.101  0.1376 -0.9842  0.4085
 3656SOL    HW210788   3.615   2.405   0.163 -0.6347 -0.1702  0.1905
 3657SOL     OW10789   4.829   1.933   4.894  0.4488  0.3862  0.3476
 3657SOL    HW110790   4.842   1.930   4.795 -0.7599 -1.0297  0.1989
 3657SOL    HW210791   4.732   1.917   4.915  0.8726 -0.3915  1.8076
 3658SOL     OW10792   0.671   2.347   1.019  0.3145 -0.0425  0.0709
 3658SOL    HW110793   0.659   2.355   0.920  3.5928  1.7419 -0.2953
 3658SOL    HW210794   0.738   2.276   1.038 -0.5168 -0.5777  1.0741
 3659SOL     OW10795   4.624   0.905   0.105 -0.1441 -0.0597  0.0312
 3659SOL    HW110796   4.531   0.927   0.133  0.0801  0.5323  0.3383
 3659SOL    HW210797   4.686   0.977   0.137  0.4489 -0.5588  0.0262
 3660SOL     OW10798   0.640   2.912   1.359  0.2901  0.6569 -0.0021
 3660SOL    HW110799   0.620   2.848   1.285  0.5968 -0.2632  0.6993
 3660SOL    HW210800   0.739   2.919   1.372  0.2205  0.2571  0.7899
 3661SOL     OW10801   4.363   2.409   3.714 -0.1891 -0.4886 -0.2745
 3661SOL    HW110802   4.335   2.338   3.779 -0.6787 -1.0349 -1.0751
 3661SOL    HW210803   4.379   2.494   3.764  0.2858 -1.1116  0.6863
 3662SOL     OW10804   4.387   3.513   4.104  0.5696  0.4531 -0.7148
 3662SOL    HW110805   4.371   3.585   4.037  0.8079  1.2754  0.0894
 3662SOL    HW210806   4.451   3.547   4.174 -0.2473 -0.1228  0.3277
 3663SOL     OW10807   3.151   2.705   3.986  0.1189  0.3546 -0.1677
 3663SOL    HW110808   3.107   2.618   4.005  2.7724 -0.8452  1.1037
 3663SOL    HW210809   3.178   2.710   3.890  1.9519 -1.3205  0.1960
 3664SOL     OW10810   0.278   0.883   1.149 -0.4880 -0.1979 -0.1373
 3664SOL    HW110811   0.208   0.938   1.194  0.8878  0.6655  1.0238
 3664SOL    HW210812   0.267   0.787   1.177 -0.9120  0.0002  0.4029
 3665SOL     OW10813   0.758   3.280   3.414 -0.3998 -0.2904  0.4290
 3665SOL    HW110814   0.706   3.297   3.331  0.2006 -1.0234 -0.1083
 3665SOL    HW210815   0.792   3.186   3.414  1.3987  0.3141  0.4838
 3666SOL     OW10816   2.227   4.632   4.730 -0.9495 -0.0541 -0.2374
 3666SOL    HW110817   2.186   4.543   4.747 -1.4505  0.0216 -1.0071
 3666SOL    HW210818   2.181   4.702   4.785 -0.6362 -0.2482  0.2737
 3667SOL     OW10819   2.962   1.056   0.571  0.6971  0.0307  0.3277
 3667SOL    HW110820   2.948   1.146   0.529  0.7242 -0.3806 -0.5813
 3667SOL    HW210821   3.047   1.056   0.622  0.6834  0.5312  0.3556
 3668SOL     OW10822   3.110   0.910   4.689  0.1245 -0.0178  0.3769
 3668SOL    HW110823   3.032   0.906   4.751  0.2885  0.3023  0.6091
 3668SOL    HW210824   3.194   0.926   4.742  0.0018  2.7418 -0.0771
 3669SOL     OW10825   4.627   2.221   3.879  0.2282 -0.5229 -0.6795
 3669SOL    HW110826   4.625   2.299   3.941  0.5426  0.9789 -2.4713
 3669SOL    HW210827   4.686   2.242   3.801  0.9413 -2.8701 -0.8487
 3670SOL     OW10828   1.659   2.285   0.097 -0.4183 -0.3579  0.0391
 3670SOL    HW110829   1.603   2.202   0.102 -0.4877 -0.3875 -0.9238
 3670SOL    HW210830   1.608   2.363   0.133  0.4742 -1.0930  3.1678
 3671SOL     OW10831   2.446   3.174   2.026  0.2057 -0.3433  0.1342
 3671SOL    HW110832   2.460   3.191   1.929 -1.3384 -0.1134 -0.0778
 3671SOL    HW210833   2.533   3.180   2.075  0.7045  1.5792 -0.9294
 3672SOL     OW10834   3.542   3.147   0.903 -0.4517 -0.3102  0.0865
 3672SOL    HW110835   3.615   3.136   0.835 -0.5569  0.2495 -0.1302
 3672SOL    HW210836   3.454   3.151   0.856 -0.5847 -0.5654  0.3130
 3673SOL     OW10837   1.212   2.086   4.213 -0.5889 -0.1335  0.9171
 3673SOL    HW110838   1.210   2.057   4.308  1.2831 -2.5692  0.3443
 3673SOL    HW210839   1.307   2.098   4.184 -1.1797  2.5810 -0.1444
 3674SOL     OW10840   0.561   4.901   2.281  0.1511 -0.4530 -0.2047
 3674SOL    HW110841   0.468   4.913   2.248 -0.9720 -0.3060  2.7802
 3674SOL    HW210842   0.583   4.803   2.284  0.5182 -0.4580 -1.8010
 3675SOL     OW10843   4.787   1.928   0.281  0.2823  0.1487  0.0389
 3675SOL    HW110844   4.862   1.952   0.220  0.0778 -0.9673 -0.6713
 3675SOL    HW210845   4.801   1.974   0.369  1.7756  0.0134 -0.0902
 3676SOL     OW10846   2.711   1.387   0.278  0.6572 -0.3332 -0.3784
 3676SOL    HW110847   2.733   1.328   0.356 -0.4289  0.0529  0.2350
 3676SOL    HW210848   2.612   1.399   0.272  0.7551  0.0058 -1.5588
 3677SOL     OW10849   2.241   2.124   0.447 -0.2061  0.5492  0.3732
 3677SOL    HW110850   2.205   2.182   0.373  0.0424 -1.1827 -1.1784
 3677SOL    HW210851   2.337   2.105   0.429  0.1866  1.0795  1.8274
 3678SOL     OW10852   2.280   2.593   4.362  0.1145  0.4152 -0.1956
 3678SOL    HW110853   2.353   2.614   4.427 -0.4501  2.1499 -0.0731
 3678SOL    HW210854   2.194   2.579   4.411  0.1753 -0.7384 -0.4036
 3679SOL     OW10855   0.224   1.203   0.334  0.2854  0.2670  0.3592
 3679SOL    HW110856   0.299   1.230   0.395  0.7662  0.8290 -0.4476
 3679SOL    HW210857   0.260   1.143   0.262 -0.5333 -1.5508  1.3889
 3680SOL     OW10858   3.908   2.069   4.480 -0.5770 -0.1401 -0.5976
 3680SOL    HW110859   3.920   2.162   4.447 -0.3708 -0.0105 -0.1606
 3680SOL    HW210860   3.991   2.016   4.463 -1.1636 -0.6476 -2.1106
 3681SOL     OW10861   1.457   1.898   3.961 -0.7811 -0.0725  0.5151
 3681SOL    HW110862   1.433   1.950   3.879 -1.2640 -1.5810 -0.3472
 3681SOL    HW210863   1.482   1.961   4.035  0.6327  1.3351 -1.0645
 3682SOL     OW10864   5.004   1.896   1.323  0.0738 -0.3238  0.1930
 3682SOL    HW110865   4.973   1.812   1.279  1.5199 -0.7554 -0.0707
 3682SOL    HW210866   4.928   1.938   1.373 -1.4026 -0.3024 -1.9287
 3683SOL     OW10867   4.185   2.575   2.992  0.2384 -0.2390 -0.1103
 3683SOL    HW110868   4.181   2.484   2.951 -0.5216 -0.3696  0.2385
 3683SOL    HW210869   4.217   2.568   3.086  1.5121  0.0131 -0.4913
 3684SOL     OW10870   0.185   1.798   4.112  0.2112  0.5899 -0.7698
 3684SOL    HW110871   0.116   1.753   4.056 -0.6811  0.4667  0.4048
 3684SOL    HW210872   0.269   1.744   4.111 -1.1448 -1.7550  1.4480
 3685SOL     OW10873   0.449   3.941   3.457 -0.1994 -0.4894 -0.1889
 3685SOL    HW110874   0.473   3.922   3.552 -0.4944 -3.2245 -0.5831
 3685SOL    HW210875   0.355   3.976   3.453  0.1791  0.6699  0.5751
 3686SOL     OW10876   2.857   2.414   1.204 -0.0719 -0.2346 -0.0561
 3686SOL    HW110877   2.943   2.460   1.223 -0.5014  0.2290  0.8571
 3686SOL    HW210878   2.836   2.419   1.106  0.6188  0.1988 -0.1835
 3687SOL     OW10879   0.392   4.979   4.997  0.1542  0.4283 -0.5275
 3687SOL    HW110880   0.448   4.898   4.984  1.0797  1.0915 -0.8210
 3687SOL    HW210881   0.326   4.987   4.923 -1.1596 -0.9842  0.4318
 3688SOL     OW10882   1.193   4.697   1.723 -0.2285 -0.2832  0.0775
 3688SOL    HW110883   1.152   4.756   1.792  1.0562 -0.6834  1.2165
 3688SOL    HW210884   1.121   4.661   1.663 -1.0489  2.4845 -0.7345
 3689SOL     OW10885   2.276   3.695   1.134 -0.0635  0.1446  0.4790
 3689SOL    HW110886   2.305   3.642   1.055 -2.5178 -0.2319 -0.2230
 3689SOL    HW210887   2.207   3.645   1.185  0.8351  0.7632  2.4216
 3690SOL     OW10888   2.061   3.710   0.827 -0.4315 -0.2361  0.2199
 3690SOL    HW110889   2.064   3.789   0.766 -0.5936  1.1024  1.8784
 3690SOL    HW210890   1.970   3.670   0.825  0.0724 -1.4269 -1.8334
 3691SOL     OW10891   4.605   1.092   0.875  0.0373 -0.2490 -0.0867
 3691SOL    HW110892   4.669   1.063   0.947 -0.8265 -0.3778  0.6557
 3691SOL    HW210893   4.570   1.183   0.897  0.9370  0.3976 -1.1804
 3692SOL     OW10894   0.668   1.392   1.389  0.1171  0.4716  0.3818
 3692SOL    HW110895   0.652   1.472   1.448  1.7396  1.7230 -0.7905
 3692SOL    HW210896   0.674   1.310   1.446  0.8406  1.5174  1.8848
 3693SOL     OW10897   2.510   4.751   3.085  0.0332  0.0379  0.3527
 3693SOL    HW110898   2.526   4.832   3.142 -1.4826  0.4749  0.2007
 3693SOL    HW210899   2.494   4.672   3.143  1.7930 -0.2519  0.5057
 3694SOL     OW10900   0.779   4.877   1.926 -0.1910  0.3413  0.0944
 3694SOL    HW110901   0.698   4.819   1.922  0.7335 -1.0766  1.0906
 3694SOL    HW210902   0.774   4.934   2.009 -1.0933  1.7531 -0.8776
 3695SOL     OW10903   0.605   1.959   2.281  0.2855 -0.8008  0.0753
 3695SOL    HW110904   0.647   2.007   2.203  1.6887 -1.4805  0.3892
 3695SOL    HW210905   0.507   1.980   2.283  0.3139 -0.3408 -1.5506
 3696SOL     OW10906   2.813   4.838   1.787 -0.1927  0.3296  0.0450
 3696SOL    HW110907   2.891   4.854   1.847 -0.2505  0.6916  0.0250
 3696SOL    HW210908   2.749   4.914   1.795 -0.0144  0.5721 -0.7774
 3697SOL     OW10909   4.319   2.017   4.094  0.0882 -0.3142  0.2601
 3697SOL    HW110910   4.271   1.954   4.033  2.0151 -0.3156 -1.3556
 3697SOL    HW210911   4.365   1.965   4.166  0.3293 -0.6173 -0.1092
 3698SOL     OW10912   1.950   2.150   3.884  0.5305 -0.1881  0.4216
 3698SOL    HW110913   1.901   2.094   3.818 -0.4461  0.1596  0.8205
 3698SOL    HW210914   1.884   2.191   3.948  1.4846 -0.9083  1.9195
 3699SOL     OW10915   2.950   0.443   3.268  0.2420 -0.4908 -0.0041
 3699SOL    HW110916   2.953   0.354   3.312  1.8845 -0.5946 -0.2628
 3699SOL    HW210917   2.957   0.432   3.169  1.5168 -0.0525  0.0210
 3700SOL     OW10918   3.114   3.006   0.600 -0.4579 -0.1686 -1.3206
 3700SOL    HW110919   3.150   2.956   0.679 -1.4357 -0.2619 -0.9166
 3700SOL    HW210920   3.047   2.948   0.553 -1.4925  0.6726 -0.9410
 3701SOL     OW10921   3.879   4.964   2.717  0.0847 -0.0551 -0.2593
 3701SOL    HW110922   3.961   5.019   2.706 -0.6119  1.0908  0.0742
 3701SOL    HW210923   3.873   4.897   2.642  1.4444 -0.3630 -0.1250
 3702SOL     OW10924   3.114   1.403   4.850  0.8224  0.1399  0.0358
 3702SOL    HW110925   3.084   1.420   4.756 -0.4087  0.1191  0.4028
 3702SOL    HW210926   3.035   1.374   4.905  1.6630 -0.5462  0.9083
 3703SOL     OW10927   3.187   2.061   1.539 -0.0878 -0.2377 -0.1391
 3703SOL    HW110928   3.193   2.001   1.619 -0.8082  1.3914  1.1977
 3703SOL    HW210929   3.277   2.067   1.495  0.4065 -0.8985  0.7396
 3704SOL     OW10930   0.393   2.373   1.496 -0.5540 -0.1210  0.2457
 3704SOL    HW110931   0.425   2.303   1.560 -0.9570 -0.5375 -0.0031
 3704SOL    HW210932   0.444   2.365   1.410 -0.9266 -0.4224  0.0485
 3705SOL     OW10933   3.381   1.087   4.904  0.3644  0.4429  0.1664
 3705SOL    HW110934   3.455   1.122   4.962  1.1762 -0.2874 -0.4044
 3705SOL    HW210935   3.396   0.989   4.887  0.5701  0.7907 -1.9045
 3706SOL     OW10936   2.134   4.463   0.077 -0.3620  0.3791 -0.4095
 3706SOL    HW110937   2.128   4.426  -0.016 -1.2799  1.8185 -0.9499
 3706SOL    HW210938   2.229   4.461   0.108 -0.4903 -4.1159  0.3407
 3707SOL     OW10939   3.777   3.186   2.307  0.5026  0.4089 -0.3709
 3707SOL    HW110940   3.741   3.239   2.230  1.2855  0.2995 -0.8256
 3707SOL    HW210941   3.831   3.246   2.366 -0.9380  0.7175  0.6707
 3708SOL     OW10942   4.381   0.484   0.632 -0.8140 -0.3700 -0.2578
 3708SOL    HW110943   4.432   0.553   0.580 -2.6390 -0.4666 -2.3085
 3708SOL    HW210944   4.288   0.518   0.649 -0.5402 -0.7131  2.2758
 3709SOL     OW10945   3.302   0.654   2.333 -0.0215  0.4623  0.2611
 3709SOL    HW110946   3.337   0.603   2.254 -0.2621 -0.5476  0.7962
 3709SOL    HW210947   3.238   0.597   2.384 -2.0100  2.0648 -0.3476
 3710SOL     OW10948   3.951   3.219   1.185  0.0219  0.4190  0.9690
 3710SOL    HW110949   3.988   3.308   1.213 -0.3473  0.2602  1.9851
 3710SOL    HW210950   3.857   3.231   1.153  0.3565  0.5599  0.0065
 3711SOL     OW10951   4.577   4.113   0.063  0.3608  0.2321 -0.1777
 3711SOL    HW110952   4.496   4.059   0.087 -0.1337  1.7777  1.8990
 3711SOL    HW210953   4.549   4.193   0.010  0.5602  0.6020  0.2733
 3712SOL     OW10954   3.351   0.810   1.942 -0.8586 -0.3539  0.2148
 3712SOL    HW110955   3.277   0.841   2.002 -1.5345 -0.1363 -0.7117
 3712SOL    HW210956   3.389   0.889   1.893 -3.0908 -0.9419 -2.7279
 3713SOL     OW10957   1.861   2.267   1.418  0.2349 -0.0463  0.1198
 3713SOL    HW110958   1.845   2.226   1.328 -0.5322 -1.2477  0.7705
 3713SOL    HW210959   1.815   2.356   1.422  0.1298 -0.0559 -0.6121
 3714SOL     OW10960   2.293   2.759   4.652  0.0581  0.7899 -0.1839
 3714SOL    HW110961   2.347   2.701   4.714  1.8442  1.2110 -1.2765
 3714SOL    HW210962   2.223   2.807   4.704 -0.8453 -1.5680  0.9140
 3715SOL     OW10963   4.252   3.467   4.517  0.5944  0.2891  0.3068
 3715SOL    HW110964   4.277   3.559   4.546  1.4839 -0.4365  2.0481
 3715SOL    HW210965   4.327   3.404   4.538 -0.6209 -1.1008  0.6905
 3716SOL     OW10966   1.201   3.986   2.834  0.0537 -0.7266 -0.3984
 3716SOL    HW110967   1.114   3.949   2.866 -0.3652  0.8325  0.3827
 3716SOL    HW210968   1.277   3.941   2.882 -0.4933  0.2759  1.5049
 3717SOL     OW10969   1.577   4.056   1.312  0.6835 -0.1052  0.0049
 3717SOL    HW110970   1.562   4.089   1.219  0.1309  2.5497  0.9543
 3717SOL    HW210971   1.658   3.997   1.314 -0.1240 -1.4076 -2.3585
 3718SOL     OW10972   5.007   3.942   3.137  0.5693  0.5607 -0.6103
 3718SOL    HW110973   4.976   3.850   3.114 -0.0588  0.7576 -0.5695
 3718SOL    HW210974   5.016   3.996   3.053 -0.2708  0.8312 -0.5315
 3719SOL     OW10975   0.005   0.731   3.914 -0.3227 -0.0965 -0.0137
 3719SOL    HW110976  -0.047   0.678   3.847  2.0729  0.1094 -2.1975
 3719SOL    HW210977  -0.025   0.827   3.911  0.2701  0.0717 -1.4218
 3720SOL     OW10978   0.229   2.406   1.727 -0.4507  0.5754  0.0709
 3720SOL    HW110979   0.175   2.490   1.735 -0.4718  0.5663  0.0224
 3720SOL    HW210980   0.280   2.407   1.641 -1.3796 -0.0036 -0.5025
 3721SOL     OW10981   0.720   4.175   0.285 -0.7563  0.1599 -0.4311
 3721SOL    HW110982   0.702   4.239   0.210 -1.6118  0.4418  0.0069
 3721SOL    HW210983   0.691   4.216   0.371 -1.0949 -0.7206 -0.1149
 3722SOL     OW10984   2.844   1.029   3.826 -0.0187  0.3922 -0.1923
 3722SOL    HW110985   2.921   1.039   3.889  0.7230  1.6538 -1.2630
 3722SOL    HW210986   2.867   0.960   3.757 -0.9405 -1.1960  1.0133
 3723SOL     OW10987   4.626   4.325   3.877  0.1351 -0.5128  0.4879
 3723SOL    HW110988   4.620   4.226   3.862  0.3749 -0.2682 -1.5396
 3723SOL    HW210989   4.564   4.371   3.814 -0.1446  0.6360  1.5744
 3724SOL     OW10990   2.538   1.580   0.799 -0.0069 -0.1372  0.0478
 3724SOL    HW110991   2.467   1.510   0.814 -0.1688 -0.4089 -1.8023
 3724SOL    HW210992   2.520   1.658   0.859 -0.6602 -1.0631  1.1093
 3725SOL     OW10993   3.141   3.460   1.159  0.1826 -0.1224  0.6728
 3725SOL    HW110994   3.095   3.523   1.096  0.2508 -0.9240 -0.1893
 3725SOL    HW210995   3.200   3.398   1.108 -0.0560 -1.0441  1.4830
 3726SOL     OW10996   1.607   1.559   4.257 -0.5501 -0.1748 -0.2064
 3726SOL    HW110997   1.546   1.510   4.195  0.9203 -0.6735 -1.3451
 3726SOL    HW210998   1.701   1.526   4.244 -0.3285 -1.2967  3.3099
 3727SOL     OW10999   4.524   2.373   4.385 -0.2264  0.5749  0.1432
 3727SOL    HW111000   4.616   2.376   4.346 -0.6887 -0.7389 -1.1349
 3727SOL    HW211001   4.458   2.403   4.316 -0.8222  0.7928  0.8029
 3728SOL     OW11002   4.842   0.622   4.884  0.2954  0.2384 -0.0835
 3728SOL    HW111003   4.774   0.692   4.860  0.1388 -0.5550 -2.2679
 3728SOL    HW211004   4.871   0.576   4.800  0.0449 -2.6239  1.2913
 3729SOL     OW11005   2.398   0.227   1.333  0.4131  0.4164  0.1578
 3729SOL    HW111006   2.436   0.294   1.396  1.9125  1.5894 -1.8675
 3729SOL    HW211007   2.428   0.135   1.358  2.1938  1.0145  0.3205
 3730SOL     OW11008   3.439   1.492   1.599  0.2907  0.2380  0.1920
 3730SOL    HW111009   3.391   1.516   1.514  1.2038 -1.0413 -0.7386
 3730SOL    HW211010   3.378   1.507   1.677 -1.8046 -1.6325 -0.9499
 3731SOL     OW11011   3.336   2.229   2.790 -0.1315 -0.3313 -0.8006
 3731SOL    HW111012   3.391   2.145   2.788  1.9522  0.9488 -0.6612
 3731SOL    HW211013   3.244   2.210   2.757  0.0273 -2.8302  0.0149
 3732SOL     OW11014   2.916   3.980   4.666 -0.6291 -0.6350  0.2012
 3732SOL    HW111015   2.961   3.891   4.662  0.1295 -0.3537  1.7365
 3732SOL    HW211016   2.835   3.974   4.724 -1.1556 -0.5529 -0.5184
 3733SOL     OW11017   4.093   1.085   2.584  0.1572 -0.4590  0.1615
 3733SOL    HW111018   4.108   0.989   2.608  1.2564  0.0143  1.4925
 3733SOL    HW211019   4.110   1.097   2.486 -1.4508 -1.8771 -0.3455
 3734SOL     OW11020   1.060   0.579   2.026  0.0833 -0.5196  0.1595
 3734SOL    HW111021   1.120   0.548   2.099  0.7725 -1.0471 -0.6174
 3734SOL    HW211022   1.070   0.519   1.947  0.4899  0.9333 -0.9253
 3735SOL     OW11023   1.104   1.936   2.003 -0.2499 -0.2718 -0.5455
 3735SOL    HW111024   1.084   2.002   2.076 -0.5782 -1.0959  0.1347
 3735SOL    HW211025   1.034   1.864   2.003  1.7096 -2.3417  0.8224
 3736SOL     OW11026   4.644   3.836   3.440  0.4402 -0.3032  0.4869
 3736SOL    HW111027   4.587   3.763   3.477  0.2624 -0.1594  0.4975
 3736SOL    HW211028   4.647   3.912   3.505 -0.5126  0.2832 -0.1144
 3737SOL     OW11029   5.027   1.884   3.385  0.8752 -0.4933  0.0836
 3737SOL    HW111030   4.928   1.882   3.402  1.0527  0.3774  1.4211
 3737SOL    HW211031   5.059   1.793   3.360 -0.5360 -0.4356 -2.2381
 3738SOL     OW11032   5.029   1.211   0.201  0.6224  0.4318  0.7061
 3738SOL    HW111033   4.971   1.293   0.192 -0.7476 -0.5877 -0.2036
 3738SOL    HW211034   5.097   1.227   0.272  0.2172  2.2613  0.7473
 3739SOL     OW11035   3.377   2.568   0.187  0.3608  0.6249 -0.1454
 3739SOL    HW111036   3.350   2.474   0.211  1.3313  0.2813 -0.3658
 3739SOL    HW211037   3.457   2.565   0.127  0.7444  1.6201  0.3082
 3740SOL     OW11038   0.095   1.810   0.394  0.1234  0.0768  0.4363
 3740SOL    HW111039   0.190   1.790   0.373  0.4498 -1.0000  2.7026
 3740SOL    HW211040   0.087   1.902   0.432  0.1650  0.3137 -0.1066
 3741SOL     OW11041   3.441   4.455   2.872  0.8418 -0.1153 -0.4203
 3741SOL    HW111042   3.382   4.375   2.859  1.1298 -0.2434 -0.9667
 3741SOL    HW211043   3.388   4.529   2.913  0.1244 -0.0134 -1.4964
 3742SOL     OW11044   0.109   2.079   0.510 -0.2305  0.3288 -0.5998
 3742SOL    HW111045   0.129   2.148   0.440 -0.0417 -0.7109 -1.5979
 3742SOL    HW211046   0.194   2.036   0.540 -0.4859 -0.7875 -1.3902
 3743SOL     OW11047   0.570   0.755   0.949  0.2745 -0.1202  0.9167
 3743SOL    HW111048   0.621   0.817   0.890  0.3641 -0.1463  0.9660
 3743SOL    HW211049   0.592   0.774   1.045 -0.0513  0.0828  0.9544
 3744SOL     OW11050   4.770   4.882   0.104 -0.2407  0.4412 -0.6573
 3744SOL    HW111051   4.805   4.865   0.012 -0.7723  1.1549 -0.9961
 3744SOL    HW211052   4.764   4.981   0.120 -2.2743  0.3610 -0.6841
 3745SOL     OW11053   2.504   0.889   2.978  0.5913  0.8613  0.5162
 3745SOL    HW111054   2.413   0.889   2.937  1.0013  0.4642 -0.4221
 3745SOL    HW211055   2.498   0.917   3.074 -0.1146  4.0705 -0.3566
 3746SOL     OW11056   1.678   2.276   4.255 -0.4409 -0.0995 -0.3625
 3746SOL    HW111057   1.728   2.285   4.341  1.6316 -1.1775 -1.3967
 3746SOL    HW211058   1.742   2.272   4.179 -2.1339 -0.9583 -1.8149
 3747SOL     OW11059   0.337   4.283   4.424 -0.1461  0.1756  0.1685
 3747SOL    HW111060   0.366   4.292   4.520 -0.7742  1.5943  0.2404
 3747SOL    HW211061   0.249   4.327   4.411 -0.6054 -0.9723 -0.8471
 3748SOL     OW11062   3.924   0.447   2.606 -0.2012 -0.2192  0.4186
 3748SOL    HW111063   3.860   0.518   2.574  0.4581  0.7207  1.1391
 3748SOL    HW211064   3.877   0.359   2.608 -0.6411 -0.0830 -1.8450
 3749SOL     OW11065   1.165   3.642   0.909  0.2008  0.3095  0.6991
 3749SOL    HW111066   1.108   3.661   0.829 -1.0268  1.1931  1.7447
 3749SOL    HW211067   1.119   3.575   0.967  1.4765 -0.9706  0.2796
 3750SOL     OW11068   3.710   1.696   1.321 -0.0584 -0.3874  0.4140
 3750SOL    HW111069   3.762   1.612   1.336 -0.8163 -0.8518  0.5066
 3750SOL    HW211070   3.691   1.740   1.409 -0.1528 -0.4260  0.4135
 3751SOL     OW11071   0.274   0.309   1.357  0.2049  0.1309 -0.0699
 3751SOL    HW111072   0.215   0.369   1.302  1.2571  0.9126 -0.3881
 3751SOL    HW211073   0.359   0.293   1.307  0.0499 -1.4526  0.1243
 3752SOL     OW11074   3.854   4.338   0.669  0.0238  0.5149  0.1611
 3752SOL    HW111075   3.802   4.329   0.585  0.1044  0.2563  0.1376
 3752SOL    HW211076   3.847   4.254   0.722 -0.4520  0.8570  0.6592
 3753SOL     OW11077   0.739   0.757   1.174 -0.0587  0.0371 -0.3199
 3753SOL    HW111078   0.774   0.743   1.082  1.8553 -0.2355  0.4051
 3753SOL    HW211079   0.786   0.835   1.216 -1.2045  0.4216  0.2872
 3754SOL     OW11080   3.976   4.219   4.483 -0.4819 -0.0042 -0.6458
 3754SOL    HW111081   3.983   4.123   4.457  0.2937 -0.4974  1.2334
 3754SOL    HW211082   3.881   4.241   4.504 -0.2932 -1.2304  1.8346
 3755SOL     OW11083   3.323   0.097   1.677  0.5401  0.4720 -0.4119
 3755SOL    HW111084   3.369   0.182   1.700  0.5919  0.4052 -0.2683
 3755SOL    HW211085   3.246   0.082   1.738  0.8510  0.1519 -0.0922
 3756SOL     OW11086   4.554   1.045   2.888  0.7738 -0.0352 -0.8354
 3756SOL    HW111087   4.622   1.015   2.821 -1.6933 -1.7163 -2.7825
 3756SOL    HW211088   4.542   1.145   2.881  1.6841  0.0215 -1.8033
 3757SOL     OW11089   0.736   2.567   3.946  0.2983 -0.0007 -0.2572
 3757SOL    HW111090   0.744   2.503   4.023  2.2071  0.2873 -0.1742
 3757SOL    HW211091   0.749   2.517   3.861 -1.4362 -0.2501 -0.4154
 3758SOL     OW11092   1.990   2.847   1.562 -0.1049  0.0072 -0.0492
 3758SOL    HW111093   2.078   2.872   1.604 -0.6316  0.8547  0.5934
 3758SOL    HW211094   1.923   2.829   1.634 -0.2211 -1.5806 -0.5278
 3759SOL     OW11095   3.333   1.291   2.433  0.6939  0.0046 -0.2592
 3759SOL    HW111096   3.361   1.219   2.497  0.1661 -1.1578 -1.2924
 3759SOL    HW211097   3.346   1.258   2.339 -4.0028 -0.7241 -0.9027
 3760SOL     OW11098   4.289   4.004   0.028 -0.1796  0.8563 -0.1664
 3760SOL    HW111099   4.341   3.922   0.054  0.1134  1.4578  1.2136
 3760SOL    HW211100   4.192   3.983   0.026 -0.1175  0.5056  0.3190
 3761SOL     OW11101   2.289   1.451   4.543  0.4125  0.2414  0.2182
 3761SOL    HW111102   2.305   1.389   4.466  0.9784 -1.5866  1.7378
 3761SOL    HW211103   2.193   1.447   4.569  0.6090 -0.6883  0.8464
 3762SOL     OW11104   0.070   1.126   2.759 -0.0836 -0.0111 -0.1063
 3762SOL    HW111105   0.127   1.203   2.788  0.7784 -0.8462  0.4764
 3762SOL    HW211106   0.128   1.048   2.736 -0.9778 -0.8505  0.3853
 3763SOL     OW11107   4.660   2.381   2.906  0.0908  0.3546 -0.0856
 3763SOL    HW111108   4.617   2.385   2.816 -0.8645 -1.5555  0.2241
 3763SOL    HW211109   4.751   2.423   2.902  0.6441 -0.8800 -2.2996
 3764SOL     OW11110   4.460   3.270   4.479  0.4021  0.3271  0.3262
 3764SOL    HW111111   4.549   3.316   4.472  1.6987 -1.9589  0.4518
 3764SOL    HW211112   4.451   3.205   4.403 -1.7211  1.3341 -0.3489
 3765SOL     OW11113   0.580   0.124   2.443  1.0458  0.0456 -0.6092
 3765SOL    HW111114   0.583   0.026   2.424 -2.1763 -0.3367  0.2738
 3765SOL    HW211115   0.584   0.139   2.542  1.0319  0.7569 -0.7113
 3766SOL     OW11116   3.838   2.593   0.413  0.1227  0.7097 -0.3944
 3766SOL    HW111117   3.755   2.644   0.394 -1.3802 -0.3564  2.5580
 3766SOL    HW211118   3.814   2.501   0.446  2.5592 -0.2743 -1.0853
 3767SOL     OW11119   1.379   2.695   4.846 -0.0773  0.2336 -0.0593
 3767SOL    HW111120   1.317   2.769   4.869 -0.7369 -0.6028  0.9934
 3767SOL    HW211121   1.355   2.614   4.899  1.4291 -0.3535 -0.2060
 3768SOL     OW11122   2.898   4.049   2.344  0.0867 -0.0766 -0.3502
 3768SOL    HW111123   2.810   4.023   2.383  0.2310 -0.0938 -0.0347
 3768SOL    HW211124   2.927   4.137   2.382  0.1065  0.0307 -0.6112
 3769SOL     OW11125   0.829   1.194   2.147  0.4883  0.2617 -0.1922
 3769SOL    HW111126   0.753   1.229   2.201  1.5321 -0.4533  1.8075
 3769SOL    HW211127   0.908   1.254   2.158  0.3058  0.9392 -2.1696
 3770SOL     OW11128   4.667   0.454   3.302  0.1338  0.0476  0.3133
 3770SOL    HW111129   4.585   0.459   3.246  1.5940 -0.5336 -2.0401
 3770SOL    HW211130   4.733   0.522   3.270  1.8943 -1.8365 -0.2909
 3771SOL     OW11131   2.947   2.622   0.318  0.2470 -0.3734  0.2492
 3771SOL    HW111132   2.990   2.589   0.402  0.3260  0.8766  0.7213
 3771SOL    HW211133   3.017   2.649   0.253  0.1869 -0.0334  0.3227
 3772SOL     OW11134   1.849   4.590   4.713  0.0507 -0.2287 -0.2279
 3772SOL    HW111135   1.833   4.528   4.790 -1.8236 -1.2542 -1.3656
 3772SOL    HW211136   1.777   4.577   4.645  0.2571  2.4108 -1.0414
 3773SOL     OW11137   2.856   1.488   4.443 -0.5081 -0.1945 -0.2066
 3773SOL    HW111138   2.832   1.402   4.398  0.3745  0.1251 -1.3430
 3773SOL    HW211139   2.773   1.535   4.473 -1.0808 -0.7319 -0.9318
 3774SOL     OW11140   4.998   2.174   1.136 -0.2369 -0.2275  0.0104
 3774SOL    HW111141   5.082   2.154   1.086 -0.3698 -1.7700  0.3239
 3774SOL    HW211142   5.021   2.209   1.227  0.0945 -0.7669  0.1421
 3775SOL     OW11143   4.175   2.423   2.207 -0.4819  0.0604  0.3364
 3775SOL    HW111144   4.153   2.472   2.123  2.6117 -2.2642 -2.1232
 3775SOL    HW211145   4.112   2.346   2.219 -0.5268 -0.0046 -0.2878
 3776SOL     OW11146   0.841   1.877   2.846  0.4585  0.1588 -0.2381
 3776SOL    HW111147   0.854   1.862   2.748 -1.1327 -0.4913 -0.3785
 3776SOL    HW211148   0.750   1.916   2.863  0.9973  0.9828  0.9276
 3777SOL     OW11149   2.937   1.706   4.976  0.2906 -0.3409 -0.0883
 3777SOL    HW111150   2.884   1.683   5.058  0.1504 -0.3534 -0.1821
 3777SOL    HW211151   2.907   1.649   4.900  0.0146  0.0761 -0.2956
 3778SOL     OW11152   4.775   1.434   2.788 -0.1847 -0.4431  0.3751
 3778SOL    HW111153   4.762   1.343   2.827  1.4953  0.2950  2.9340
 3778SOL    HW211154   4.830   1.427   2.705 -0.6597 -1.7940  0.1469
 3779SOL     OW11155   4.172   4.323   4.007  0.6222 -0.3991 -0.5428
 3779SOL    HW111156   4.075   4.343   4.021  0.5235 -0.6453 -0.8582
 3779SOL    HW211157   4.182   4.230   3.971  1.0251 -0.6525  0.1850
 3780SOL     OW11158   1.924   1.086   4.749 -0.0609  0.0568 -0.2087
 3780SOL    HW111159   1.987   1.053   4.679  0.3080 -1.2362  0.7058
 3780SOL    HW211160   1.969   1.157   4.803 -0.2537  0.8661 -1.0859
 3781SOL     OW11161   3.664   4.445   3.047 -0.3813 -0.0617  0.6337
 3781SOL    HW111162   3.593   4.439   2.977 -0.6072  0.2360  0.8373
 3781SOL    HW211163   3.628   4.412   3.134 -0.3900  0.4547  0.8266
 3782SOL     OW11164   4.900   2.538   4.027 -0.0464 -0.0621 -0.0030
 3782SOL    HW111165   4.930   2.447   4.056 -0.0393  0.1995  0.8577
 3782SOL    HW211166   4.980   2.596   4.014 -0.0003 -0.4099 -1.4169
 3783SOL     OW11167   2.789   1.829   4.226  0.5411 -0.2541  0.3060
 3783SOL    HW111168   2.807   1.734   4.199 -1.7166 -0.3157 -1.2471
 3783SOL    HW211169   2.690   1.845   4.226  0.9124  2.5021 -1.0122
 3784SOL     OW11170   4.219   4.294   0.116  0.0829 -0.3667 -0.1070
 3784SOL    HW111171   4.220   4.310   0.215  0.0807  1.5022 -0.3747
 3784SOL    HW211172   4.269   4.210   0.095 -0.4210 -1.1050  1.5201
 3785SOL     OW11173   3.768   0.251   1.207 -0.4945 -0.1597 -0.0747
 3785SOL    HW111174   3.831   0.276   1.134  0.5348 -0.8880  0.5185
 3785SOL    HW211175   3.709   0.328   1.230  0.7274  0.8126 -0.1249
 3786SOL     OW11176   3.746   2.300   1.666 -0.0595 -0.2315  0.2929
 3786SOL    HW111177   3.738   2.397   1.690  0.7007 -0.4712  1.5827
 3786SOL    HW211178   3.772   2.292   1.569 -0.0505  0.8397  0.1869
 3787SOL     OW11179   1.730   1.152   0.121 -0.0326 -0.3116  0.3950
 3787SOL    HW111180   1.677   1.214   0.063 -1.5713 -0.7581  1.2585
 3787SOL    HW211181   1.669   1.082   0.158  0.7938  0.1388  2.7710
 3788SOL     OW11182   2.049   1.957   2.029 -0.3534  0.2424 -0.4672
 3788SOL    HW111183   2.081   1.867   2.057 -0.1679  0.4838  0.1052
 3788SOL    HW211184   1.990   1.995   2.099 -0.8657  0.3435 -0.9494
 3789SOL     OW11185   3.738   3.793   3.079 -0.2811 -0.0292  0.0249
 3789SOL    HW111186   3.778   3.746   3.001  0.2056 -1.3589  1.0402
 3789SOL    HW211187   3.773   3.887   3.083 -1.4853  0.5993 -2.1904
 3790SOL     OW11188   4.406   2.674   3.773  0.5383  0.5808 -0.2287
 3790SOL    HW111189   4.495   2.663   3.728  0.5577  1.3256 -0.3805
 3790SOL    HW211190   4.349   2.735   3.719  0.2885  0.8813  0.3736
 3791SOL     OW11191   0.884   1.769   4.737 -0.5066  0.3714  0.4041
 3791SOL    HW111192   0.791   1.768   4.773 -0.5879  0.0971  0.1947
 3791SOL    HW211193   0.895   1.847   4.675 -0.8528 -0.0521 -0.2110
 3792SOL     OW11194   0.295   4.314   1.516  0.1587  0.3381 -0.6585
 3792SOL    HW111195   0.339   4.224   1.517 -1.6006 -0.6028  1.4587
 3792SOL    HW211196   0.365   4.385   1.515  1.6012 -0.9837 -2.8659
 3793SOL     OW11197   2.866   3.397   4.470  0.0915 -0.4916  0.4958
 3793SOL    HW111198   2.947   3.390   4.412  0.0099 -0.0833  0.3313
 3793SOL    HW211199   2.809   3.316   4.456  0.4060 -0.7174  0.5173
 3794SOL     OW11200   4.345   1.552   1.155  0.1179  0.1350 -0.0891
 3794SOL    HW111201   4.418   1.533   1.220 -0.3109 -2.1547 -0.1978
 3794SOL    HW211202   4.331   1.651   1.148  2.7070  0.5929  0.4299
 3795SOL     OW11203   1.972   1.534   2.750 -0.2823  0.0632  0.2065
 3795SOL    HW111204   2.011   1.494   2.833 -1.0387 -3.0711 -0.8151
 3795SOL    HW211205   1.873   1.546   2.761 -0.5383 -1.2329 -0.5012
 3796SOL     OW11206   3.915   1.723   3.873 -0.2974 -0.2943  0.3814
 3796SOL    HW111207   3.963   1.678   3.948 -0.2762  3.0380  2.5550
 3796SOL    HW211208   3.958   1.811   3.853 -2.2263  0.3463 -1.3946
 3797SOL     OW11209   3.456   1.462   3.123  0.2153 -0.3443  0.4376
 3797SOL    HW111210   3.419   1.495   3.036 -2.6695  0.8119  1.9392
 3797SOL    HW211211   3.547   1.424   3.109  0.8778  2.0133 -2.6235
 3798SOL     OW11212   3.230   4.384   3.139  0.2017 -0.4966  0.3695
 3798SOL    HW111213   3.176   4.403   3.221  0.7213 -0.6238  0.7457
 3798SOL    HW211214   3.246   4.469   3.088 -0.7435 -0.5273  0.0031
 3799SOL     OW11215   2.994   3.743   0.001  0.0409 -0.2820 -0.0477
 3799SOL    HW111216   3.093   3.743   0.015 -0.0110 -1.9885  0.6221
 3799SOL    HW211217   2.969   3.673  -0.066 -0.8983 -1.9897  1.9583
 3800SOL     OW11218   2.163   4.727   0.371  0.1604  0.2851 -0.0054
 3800SOL    HW111219   2.148   4.811   0.423  0.8723 -0.5629  1.6571
 3800SOL    HW211220   2.087   4.663   0.388 -0.2958  0.5069 -1.1280
 3801SOL     OW11221   1.397   3.688   1.117  0.1328 -0.1102  0.1065
 3801SOL    HW111222   1.322   3.660   1.057  0.8114 -0.5251 -0.5603
 3801SOL    HW211223   1.402   3.624   1.194 -0.5629  0.2630  0.4766
 3802SOL     OW11224   4.341   4.872   3.033 -0.1274  0.4092 -0.0548
 3802SOL    HW111225   4.330   4.867   2.934 -1.5136 -0.7734  0.1193
 3802SOL    HW211226   4.259   4.912   3.074 -0.7933 -1.6223  0.7680
 3803SOL     OW11227   0.907   1.509   3.349 -0.1936 -0.5666 -0.3550
 3803SOL    HW111228   0.882   1.492   3.445 -0.4581 -1.4897 -0.5755
 3803SOL    HW211229   0.984   1.573   3.346 -1.2464  0.7941  0.4101
 3804SOL     OW11230   4.094   4.723   2.792 -0.5175 -0.2093 -0.0718
 3804SOL    HW111231   4.094   4.788   2.868  0.2579 -0.4894  0.1824
 3804SOL    HW211232   4.007   4.674   2.789  0.2772 -1.9115  2.1479
 3805SOL     OW11233   0.912   4.432   4.183 -0.3746 -0.1322  0.3980
 3805SOL    HW111234   0.921   4.528   4.209  0.6353 -0.2108  0.3989
 3805SOL    HW211235   0.816   4.405   4.186 -0.5523  0.5643  1.5033
 3806SOL     OW11236   2.283   1.412   0.789  0.3834 -0.0949 -0.1055
 3806SOL    HW111237   2.211   1.471   0.825 -1.3307 -1.7620 -0.6417
 3806SOL    HW211238   2.276   1.321   0.830  2.2722 -0.2822 -0.1113
 3807SOL     OW11239   4.576   1.917   4.439 -0.3030  0.4086 -0.1722
 3807SOL    HW111240   4.576   1.832   4.386  1.3221  0.3957 -0.2024
 3807SOL    HW211241   4.501   1.915   4.505  0.3543 -1.5321  0.5849
 3808SOL     OW11242   3.646   1.087   5.013  0.3412 -0.2384  0.3001
 3808SOL    HW111243   3.628   1.010   5.075  0.3870  1.3535  2.3819
 3808SOL    HW211244   3.728   1.135   5.043 -0.6471  1.6495  0.1085
 3809SOL     OW11245   3.797   3.186   0.094 -0.1852 -0.4031 -0.1274
 3809SOL    HW111246   3.769   3.112   0.156  0.4729 -1.5324 -1.1247
 3809SOL    HW211247   3.790   3.154  -0.001  2.1715  0.0442 -0.5087
 3810SOL     OW11248   2.969   2.050   4.240  0.6039  0.2522 -0.1751
 3810SOL    HW111249   2.972   2.096   4.328 -1.7569  2.0180 -0.8854
 3810SOL    HW211250   2.905   1.973   4.244  3.4992 -2.2880  0.6280
 3811SOL     OW11251   0.463   1.550   1.983  0.0381  0.2465 -0.6892
 3811SOL    HW111252   0.442   1.646   2.003 -0.1355  0.6239 -2.5464
 3811SOL    HW211253   0.549   1.544   1.933 -0.1292 -0.5344 -0.8914
 3812SOL     OW11254   4.439   0.520   3.148  0.6125  0.5545  0.4326
 3812SOL    HW111255   4.457   0.480   3.058  1.7629 -0.6601  1.1757
 3812SOL    HW211256   4.356   0.480   3.186  1.3735 -0.6482  0.8710
 3813SOL     OW11257   2.049   1.413   3.057  0.1175  0.1891  0.5822
 3813SOL    HW111258   2.110   1.479   3.100  0.7143 -1.1522  1.8596
 3813SOL    HW211259   2.087   1.321   3.066 -0.5462 -0.3400 -1.4205
 3814SOL     OW11260   4.381   2.459   4.163  0.4495  0.2657 -0.1646
 3814SOL    HW111261   4.325   2.506   4.231 -0.8011  0.0053 -0.9821
 3814SOL    HW211262   4.375   2.507   4.076  1.7290  0.3792 -0.2064
 3815SOL     OW11263   2.548   5.036   1.451 -0.2084 -0.2008  0.5349
 3815SOL    HW111264   2.578   4.981   1.373 -0.0228 -0.0638  0.5084
 3815SOL    HW211265   2.628   5.078   1.495 -0.4747  1.7451 -0.7098
 3816SOL     OW11266   2.313   4.316   4.355 -0.2330  0.1801  0.0453
 3816SOL    HW111267   2.384   4.385   4.370 -0.5588  0.1473  1.9186
 3816SOL    HW211268   2.356   4.226   4.343  0.1164  0.4599 -0.8852
 3817SOL     OW11269   2.475   4.277   4.765  0.1709 -0.5741 -0.7009
 3817SOL    HW111270   2.396   4.262   4.706  0.9601 -0.4874 -1.8025
 3817SOL    HW211271   2.514   4.189   4.792 -1.8541 -0.7862  2.1163
 3818SOL     OW11272   4.820   2.099   1.472  0.0742  0.4988 -0.5679
 3818SOL    HW111273   4.860   2.175   1.421  0.4220  1.6661  1.3548
 3818SOL    HW211274   4.720   2.104   1.466  0.1049  0.3519 -1.4432
 3819SOL     OW11275   4.839   3.272   2.239 -0.3629  0.5391  0.7616
 3819SOL    HW111276   4.837   3.282   2.338 -0.1511  0.4939  0.7714
 3819SOL    HW211277   4.750   3.239   2.206 -1.0243  2.2564  0.7440
 3820SOL     OW11278   1.775   3.505   4.857 -0.0675  0.0361 -0.2475
 3820SOL    HW111279   1.875   3.514   4.862 -0.0560  0.8790 -1.5262
 3820SOL    HW211280   1.751   3.438   4.787 -0.3973 -1.8152  1.5431
 3821SOL     OW11281   4.241   0.064   1.832  0.2194 -0.4293  0.4421
 3821SOL    HW111282   4.289   0.139   1.879  0.0895  2.0319 -3.0170
 3821SOL    HW211283   4.279   0.052   1.741 -0.6865 -3.8086  0.3632
 3822SOL     OW11284   2.474   4.540   4.328  0.5944 -0.3689 -0.0259
 3822SOL    HW111285   2.568   4.571   4.338  1.1819 -2.1794  0.3721
 3822SOL    HW211286   2.447   4.546   4.232  1.9612 -2.0321 -0.5701
 3823SOL     OW11287   3.784   2.820   3.992 -0.2804 -0.2238 -0.2553
 3823SOL    HW111288   3.817   2.808   4.086 -2.7424 -0.9778  0.5864
 3823SOL    HW211289   3.716   2.750   3.972 -0.0898  0.1664 -2.5105
 3824SOL     OW11290   3.674   1.651   1.612  0.1022 -0.8731 -0.2283
 3824SOL    HW111291   3.697   1.667   1.708  2.2227 -0.2829 -0.7870
 3824SOL    HW211292   3.589   1.599   1.607 -1.0092  0.5921  1.9115
 3825SOL     OW11293   1.274   1.768   1.523  0.7799  0.0014  0.5497
 3825SOL    HW111294   1.260   1.690   1.462  3.5296  0.2938 -0.5840
 3825SOL    HW211295   1.206   1.838   1.503 -1.2192 -1.6802  1.0216
 3826SOL     OW11296   3.634   1.836   2.451 -0.6796 -0.0894  0.0995
 3826SOL    HW111297   3.575   1.912   2.478 -0.7496  0.1222 -0.6043
 3826SOL    HW211298   3.717   1.873   2.407  0.3273 -0.3546  1.7065
 3827SOL     OW11299   1.259   4.880   2.756  0.0872 -0.2630  0.4589
 3827SOL    HW111300   1.199   4.946   2.801 -0.9348 -1.5750  1.0969
 3827SOL    HW211301   1.280   4.805   2.819  0.9527 -0.7308 -0.3472
 3828SOL     OW11302   2.395   2.254   3.108  0.0897 -0.2715 -0.3000
 3828SOL    HW111303   2.477   2.311   3.098 -0.5025  1.0326  1.5784
 3828SOL    HW211304   2.408   2.190   3.184 -0.7313  0.1894  0.2462
 3829SOL     OW11305   4.840   2.048   0.777  0.1405 -0.0216 -0.2468
 3829SOL    HW111306   4.845   1.964   0.830  0.0621  1.2534  1.9360
 3829SOL    HW211307   4.931   2.090   0.772 -0.0610  0.4580 -0.0392
 3830SOL     OW11308   4.262   4.566   4.721 -0.0448 -0.3481 -0.0788
 3830SOL    HW111309   4.339   4.626   4.742 -0.8137  0.3460  0.8407
 3830SOL    HW211310   4.221   4.534   4.807 -2.0645  0.9526 -0.5151
 3831SOL     OW11311   1.991   4.975   2.499  0.2209  0.3305  0.3979
 3831SOL    HW111312   2.081   4.946   2.466  0.5151  0.5645  0.9871
 3831SOL    HW211313   1.954   5.044   2.438  1.1325  1.3813  0.9953
 3832SOL     OW11314   4.317   4.735   0.316  0.2543  0.1484  0.0571
 3832SOL    HW111315   4.277   4.819   0.352  0.0053  1.4594 -2.9515
 3832SOL    HW211316   4.413   4.752   0.294 -0.1084  0.1014 -1.7003
 3833SOL     OW11317   3.310   4.232   4.040  0.8255  0.7182  0.4471
 3833SOL    HW111318   3.398   4.259   4.001  2.0514 -2.9344  0.3173
 3833SOL    HW211319   3.322   4.205   4.135  0.0159 -0.5139  0.2189
 3834SOL     OW11320   0.914   1.157   4.560  0.6950  0.3424  0.8105
 3834SOL    HW111321   0.956   1.088   4.501  2.3135  1.7084  0.3153
 3834SOL    HW211322   0.830   1.191   4.516 -0.7819 -2.0354  1.5770
 3835SOL     OW11323   2.996   1.638   0.931 -0.1289 -0.0965  0.0898
 3835SOL    HW111324   3.079   1.595   0.894 -0.4399 -0.3989 -0.2640
 3835SOL    HW211325   2.973   1.718   0.876  0.0394  0.1053  0.3104
 3836SOL     OW11326   3.901   3.540   3.488 -0.0366 -1.0444  0.5137
 3836SOL    HW111327   3.809   3.528   3.525 -0.3839  0.3526  0.1749
 3836SOL    HW211328   3.919   3.470   3.419 -1.1868 -0.8367 -0.0241
 3837SOL     OW11329   3.510   0.313   1.730  0.5635  0.5117  0.0321
 3837SOL    HW111330   3.578   0.261   1.677  0.9478  0.7051  0.3305
 3837SOL    HW211331   3.554   0.351   1.811  0.2633  1.2358 -0.1431
 3838SOL     OW11332   0.610   1.768   0.702 -0.5844 -0.0775  0.2062
 3838SOL    HW111333   0.542   1.805   0.765 -1.2699  0.7744 -0.9948
 3838SOL    HW211334   0.597   1.669   0.693 -0.5882 -0.1780  1.2512
 3839SOL     OW11335   4.509   2.097   4.847 -0.5969 -0.3049 -0.0393
 3839SOL    HW111336   4.470   2.079   4.756  0.2342 -0.3716 -0.3879
 3839SOL    HW211337   4.583   2.163   4.838 -1.7727  1.1873  0.8547
 3840SOL     OW11338   3.648   4.347   4.228  0.2903  0.0647 -0.1148
 3840SOL    HW111339   3.647   4.447   4.220  1.4383  0.4045  2.5656
 3840SOL    HW211340   3.571   4.318   4.284  0.7074 -0.3746  0.2396
 3841SOL     OW11341   2.829   5.015   0.998  0.5763  0.5268  0.3737
 3841SOL    HW111342   2.908   5.068   1.027  0.6463 -0.2718  1.7620
 3841SOL    HW211343   2.856   4.952   0.924  0.3534  2.7210 -1.6906
 3842SOL     OW11344   2.618   3.719   3.298  0.4028  0.4495  0.4602
 3842SOL    HW111345   2.711   3.731   3.335  0.4194  1.9388 -0.0136
 3842SOL    HW211346   2.552   3.717   3.373  0.7977 -0.4939  0.7931
 3843SOL     OW11347   4.362   2.831   0.583 -0.9268 -0.4108 -0.2572
 3843SOL    HW111348   4.311   2.770   0.523 -2.3384  1.4343 -1.0700
 3843SOL    HW211349   4.317   2.836   0.672 -0.5292 -0.9132 -0.0251
 3844SOL     OW11350   4.993   3.177   2.019 -0.1853  0.4415  0.4860
 3844SOL    HW111351   4.936   3.211   2.094 -0.3379  0.9190  0.1582
 3844SOL    HW211352   4.999   3.077   2.024 -0.3290  0.4578  1.0343
 3845SOL     OW11353   3.377   4.090   0.061  0.1785 -0.1186 -0.0031
 3845SOL    HW111354   3.470   4.117   0.083  1.7920 -3.5679 -1.6865
 3845SOL    HW211355   3.350   4.012   0.118 -1.0518 -0.1965 -0.6418
 3846SOL     OW11356   0.577   1.875   1.274 -0.1160  0.2548 -0.0886
 3846SOL    HW111357   0.543   1.864   1.367 -0.6640  2.6474  0.0409
 3846SOL    HW211358   0.521   1.941   1.224  1.2489  0.3980 -1.5442
 3847SOL     OW11359   1.137   2.412   4.437 -0.3695  0.3242 -0.5719
 3847SOL    HW111360   1.103   2.491   4.489  1.0964 -0.2751  1.4562
 3847SOL    HW211361   1.234   2.426   4.415  0.0004 -0.9912  0.1017
 3848SOL     OW11362   3.569   1.277   1.727 -0.0335 -0.7852 -0.3006
 3848SOL    HW111363   3.588   1.186   1.690  0.2752 -0.6338 -0.5195
 3848SOL    HW211364   3.546   1.339   1.653 -0.5478 -0.7540 -0.1214
 3849SOL     OW11365   2.547   4.420   2.744 -0.0063 -0.1013 -0.3505
 3849SOL    HW111366   2.623   4.484   2.732  0.1618  0.0050  1.1087
 3849SOL    HW211367   2.507   4.400   2.655  0.9367  0.8055 -1.0140
 3850SOL     OW11368   1.866   3.664   3.720  0.3855  0.1058 -0.2062
 3850SOL    HW111369   1.929   3.608   3.667  0.2842 -1.1059  0.9023
 3850SOL    HW211370   1.911   3.748   3.749  0.6773  0.4266 -1.5261
 3851SOL     OW11371   2.111   2.209   2.716 -0.2512  0.1185 -0.1453
 3851SOL    HW111372   2.059   2.127   2.696  0.0162 -0.2841  0.7246
 3851SOL    HW211373   2.184   2.187   2.782  0.6756  0.7690 -0.9168
 3852SOL     OW11374   1.439   3.272   2.831 -0.4483  0.3014 -0.2660
 3852SOL    HW111375   1.535   3.283   2.805 -0.5602  0.6311 -0.5590
 3852SOL    HW211376   1.403   3.360   2.863  0.1460 -0.4247  2.6493
 3853SOL     OW11377   1.833   2.055   2.170  0.1738 -0.1014 -0.1422
 3853SOL    HW111378   1.794   2.082   2.258 -0.7511 -0.1407 -0.5258
 3853SOL    HW211379   1.792   2.110   2.097  1.6235  0.6022 -0.4678
 3854SOL     OW11380   2.061   3.430   4.485  0.1310 -0.1003 -0.7808
 3854SOL    HW111381   2.062   3.383   4.397  1.7337 -1.1406 -0.2707
 3854SOL    HW211382   2.000   3.508   4.481  0.4048  0.0634 -2.9182
 3855SOL     OW11383   4.586   3.275   3.737  0.2185  0.1860 -0.1012
 3855SOL    HW111384   4.537   3.224   3.808  2.9027 -0.5607  1.3335
 3855SOL    HW211385   4.625   3.358   3.776  0.6116  0.4603 -1.0591
 3856SOL     OW11386   2.049   3.285   4.234  0.5299 -0.7256 -0.1874
 3856SOL    HW111387   2.009   3.196   4.214  1.2634 -1.4500  1.4276
 3856SOL    HW211388   2.149   3.280   4.227  0.6434 -0.3149  0.9172
 3857SOL     OW11389   2.230   3.415   4.707 -0.4758 -0.7956 -0.3674
 3857SOL    HW111390   2.164   3.410   4.633  1.0312 -0.9523 -1.7505
 3857SOL    HW211391   2.295   3.339   4.699 -0.7109 -1.2736  1.5743
 3858SOL     OW11392   2.177   4.495   2.701 -0.4935  0.0486 -0.3846
 3858SOL    HW111393   2.092   4.508   2.751  0.1711  0.4907  0.6536
 3858SOL    HW211394   2.211   4.402   2.716  0.2998  0.5329  0.9572
 3859SOL     OW11395   4.096   3.583   3.704 -0.3706 -0.2365 -0.5360
 3859SOL    HW111396   4.058   3.569   3.613  0.9230 -1.1948 -0.9488
 3859SOL    HW211397   4.153   3.666   3.704 -0.7900  0.0552 -0.4519
 3860SOL     OW11398   4.118   2.788   4.472 -0.1354  0.0919  0.2574
 3860SOL    HW111399   4.164   2.704   4.442  1.5952  0.5921  1.3702
 3860SOL    HW211400   4.173   2.868   4.445 -2.6882  1.1026 -2.5399
 3861SOL     OW11401   2.817   3.914   1.624  0.4447  0.1852 -0.1261
 3861SOL    HW111402   2.877   3.994   1.630  0.1936  0.3697 -0.0319
 3861SOL    HW211403   2.764   3.918   1.539  0.3383  0.1885 -0.0604
 3862SOL     OW11404   4.525   1.996   1.124 -0.4777 -0.0803 -0.4653
 3862SOL    HW111405   4.457   1.964   1.189 -0.8958  0.7703 -0.4727
 3862SOL    HW211406   4.508   2.092   1.103  0.8855  0.2247 -0.2566
 3863SOL     OW11407   0.611   4.703   3.868  0.2455  0.0911  0.5184
 3863SOL    HW111408   0.657   4.696   3.779  3.5241 -1.9652  2.1690
 3863SOL    HW211409   0.644   4.783   3.916 -0.1041  0.1656  0.6386
 3864SOL     OW11410   1.234   0.940   2.008  0.1339 -0.1233  0.5811
 3864SOL    HW111411   1.306   0.984   2.063 -0.6332  1.6279  0.2608
 3864SOL    HW211412   1.145   0.977   2.036 -0.3908 -0.2731 -0.8558
 3865SOL     OW11413   3.050   5.014   1.595  0.2794  0.2530 -0.3011
 3865SOL    HW111414   3.128   4.987   1.540 -0.7186 -2.5954 -0.4481
 3865SOL    HW211415   3.077   5.023   1.690  0.7627 -0.9383 -0.3156
 3866SOL     OW11416   0.424   1.026   2.319  0.1108 -0.3788 -0.1767
 3866SOL    HW111417   0.441   0.975   2.403 -1.5267  0.4682  0.7085
 3866SOL    HW211418   0.363   0.972   2.260 -1.6729  0.4936  0.7872
 3867SOL     OW11419   0.524   1.611   1.057  0.4695 -0.0692  0.6687
 3867SOL    HW111420   0.609   1.653   1.090 -0.7068  1.9922  1.2319
 3867SOL    HW211421   0.447   1.643   1.113 -1.0624  0.3649 -1.5616
 3868SOL     OW11422   2.367   1.704   0.305 -0.2165 -0.3432  1.0949
 3868SOL    HW111423   2.413   1.617   0.288  0.6101  0.1329  0.8209
 3868SOL    HW211424   2.292   1.690   0.370 -0.4232 -1.3425  0.6721
 3869SOL     OW11425   3.210   0.249   0.194  0.3796  0.1575 -0.0006
 3869SOL    HW111426   3.220   0.347   0.180 -1.6564  0.5186  0.7410
 3869SOL    HW211427   3.206   0.203   0.106  0.9920  0.7561 -0.3543
 3870SOL     OW11428   0.131   5.022   0.326 -0.1129 -0.2785 -0.6194
 3870SOL    HW111429   0.115   5.117   0.356 -2.5855 -0.1240 -2.1338
 3870SOL    HW211430   0.118   5.016   0.228 -2.4476 -2.6130 -0.2559
 3871SOL     OW11431   4.536   3.580   0.443 -0.0937  0.0682 -0.3865
 3871SOL    HW111432   4.552   3.522   0.523 -1.3245  1.1759  0.7291
 3871SOL    HW211433   4.579   3.669   0.458 -0.6413  0.4092 -0.7834
 3872SOL     OW11434   4.695   0.607   2.903  0.2216 -0.3991  0.4160
 3872SOL    HW111435   4.679   0.685   2.964  0.5464 -0.1883  0.2323
 3872SOL    HW211436   4.642   0.618   2.819  1.7142  0.5845 -0.4428
 3873SOL     OW11437   1.251   3.641   4.439  0.4427 -0.3504  0.1785
 3873SOL    HW111438   1.305   3.559   4.418  2.0032  0.6081  0.2553
 3873SOL    HW211439   1.310   3.721   4.433 -0.2979  0.5062  2.9728
 3874SOL     OW11440   5.021   3.739   0.287 -0.0440 -0.0436 -0.0007
 3874SOL    HW111441   5.075   3.690   0.356  0.3370 -0.7942 -0.8144
 3874SOL    HW211442   4.924   3.722   0.304 -0.0826  1.4407  1.5658
 3875SOL     OW11443   3.635   4.637   4.243  0.0045 -0.2404  0.0918
 3875SOL    HW111444   3.681   4.630   4.332 -0.1408  1.1635  0.3125
 3875SOL    HW211445   3.654   4.727   4.204 -0.8337 -0.4374 -0.7967
 3876SOL     OW11446   2.397   4.081   4.118  0.2587 -0.0590 -0.0992
 3876SOL    HW111447   2.464   4.067   4.191 -0.3943  2.7192  1.1663
 3876SOL    HW211448   2.418   4.166   4.070 -1.6999  0.3217 -0.3675
 3877SOL     OW11449   2.755   0.466   4.601 -0.1851  0.1186 -0.0663
 3877SOL    HW111450   2.792   0.521   4.676 -0.1602  2.4050 -1.6621
 3877SOL    HW211451   2.810   0.480   4.519 -2.1303  0.3267 -1.4028
 3878SOL     OW11452   0.421   4.331   4.694 -0.0075  0.3238 -0.5317
 3878SOL    HW111453   0.470   4.413   4.726 -0.1354 -0.0375  0.6501
 3878SOL    HW211454   0.354   4.304   4.763  1.4375 -1.9725  0.0883
 3879SOL     OW11455   1.354   1.865   2.046 -0.0055 -0.2332 -0.2543
 3879SOL    HW111456   1.410   1.896   1.969  0.2724  0.2713  0.1467
 3879SOL    HW211457   1.258   1.886   2.027  0.2790  2.1075  0.5511
 3880SOL     OW11458   1.565   0.226   2.892 -0.1096 -0.1190 -0.4098
 3880SOL    HW111459   1.657   0.260   2.874 -1.4925  2.8037 -2.6329
 3880SOL    HW211460   1.554   0.135   2.850  1.7490 -0.5680  0.0050
 3881SOL     OW11461   2.950   1.437   1.720  0.3721 -0.4846 -0.0179
 3881SOL    HW111462   2.906   1.463   1.634 -0.8129 -1.6480  0.2072
 3881SOL    HW211463   2.912   1.351   1.753 -0.2645  0.6144  2.4072
 3882SOL     OW11464   0.058   2.765   2.217  0.2233  0.1998  0.3174
 3882SOL    HW111465   0.031   2.766   2.313 -2.2261  0.0279 -0.3106
 3882SOL    HW211466   0.155   2.741   2.210  1.0122  2.1697  2.8140
 3883SOL     OW11467   2.840   4.405   3.276  0.1173 -0.2877 -0.0309
 3883SOL    HW111468   2.927   4.397   3.325 -0.5713 -0.8823  1.1229
 3883SOL    HW211469   2.790   4.320   3.283 -0.9707  0.3487  0.0903
 3884SOL     OW11470   1.085   1.171   1.096  0.2443  0.0305 -0.0518
 3884SOL    HW111471   1.091   1.148   1.193  2.0355 -2.2808 -0.6210
 3884SOL    HW211472   1.007   1.232   1.081 -0.2400  0.2421  2.7664
 3885SOL     OW11473   3.844   3.734   0.801  0.0096  0.0833 -0.4146
 3885SOL    HW111474   3.850   3.636   0.821 -0.2746 -0.0255 -0.8376
 3885SOL    HW211475   3.786   3.779   0.869  2.2617  0.4505  1.3837
 3886SOL     OW11476   2.047   2.660   4.010 -0.6209 -0.7016  0.2670
 3886SOL    HW111477   2.129   2.605   3.992  0.4090  0.3937  1.4390
 3886SOL    HW211478   2.009   2.692   3.923  1.3427  0.3762 -0.2402
 3887SOL     OW11479   4.595   4.855   2.608  0.3175 -0.0031 -0.1720
 3887SOL    HW111480   4.542   4.772   2.622 -1.1792  1.3407  3.1936
 3887SOL    HW211481   4.532   4.932   2.593  1.5140  1.0308 -0.0561
 3888SOL     OW11482   4.509   3.055   0.724 -0.0328  0.3035  0.1437
 3888SOL    HW111483   4.441   3.087   0.790  0.3628  1.2434  0.1122
 3888SOL    HW211484   4.464   2.997   0.656 -0.6766  0.3588  0.5086
 3889SOL     OW11485   3.319   2.100   0.881 -0.2661 -0.7948  0.9613
 3889SOL    HW111486   3.267   2.066   0.803  1.2348 -0.5319 -0.1790
 3889SOL    HW211487   3.393   2.036   0.903  0.3563 -0.0483  1.0801
 3890SOL     OW11488   4.570   3.145   2.179  0.3119  0.3261  0.0416
 3890SOL    HW111489   4.509   3.124   2.256  1.2202  0.5404  0.8311
 3890SOL    HW211490   4.539   3.229   2.134 -0.4173  0.0222 -0.0425
 3891SOL     OW11491   0.122   0.013   1.056 -1.1973  0.2715 -0.5846
 3891SOL    HW111492   0.033   0.056   1.066 -0.4030  1.5359  2.2064
 3891SOL    HW211493   0.172   0.054   0.980 -2.5739  0.2642 -1.5176
 3892SOL     OW11494   4.849   1.865   2.545 -0.3458 -0.0138 -0.5504
 3892SOL    HW111495   4.809   1.797   2.605 -0.6672 -0.6363 -1.4467
 3892SOL    HW211496   4.784   1.887   2.472  0.5703 -0.3304 -1.4814
 3893SOL     OW11497   4.176   3.219   4.022 -0.3524  0.0013 -0.4253
 3893SOL    HW111498   4.147   3.135   4.068 -0.2985 -0.2443 -0.8385
 3893SOL    HW211499   4.195   3.289   4.091  1.7333 -0.9772  0.0958
 3894SOL     OW11500   3.619   2.589   3.991 -0.3699  0.3390  0.5905
 3894SOL    HW111501   3.685   2.514   3.981 -0.1543  0.8044 -2.1020
 3894SOL    HW211502   3.539   2.557   4.043 -1.6945 -2.8278 -2.9680
 3895SOL     OW11503   2.665   0.938   0.726  0.1666 -0.1282 -0.0519
 3895SOL    HW111504   2.721   0.859   0.751  0.4090 -0.0427 -0.3192
 3895SOL    HW211505   2.713   1.022   0.754 -0.3523 -0.0888  0.7612
 3896SOL     OW11506   0.440   2.283   0.389 -0.6059 -0.3838 -0.2727
 3896SOL    HW111507   0.430   2.240   0.299  1.4700 -0.8604 -0.3268
 3896SOL    HW211508   0.449   2.213   0.459  0.2424 -0.0347 -0.0209
 3897SOL     OW11509   2.178   3.313   2.689 -0.1814 -0.2174 -0.2506
 3897SOL    HW111510   2.227   3.249   2.629 -1.2096 -0.7847 -0.5173
 3897SOL    HW211511   2.195   3.289   2.784 -1.1061 -1.3619 -0.3473
 3898SOL     OW11512   4.334   0.604   1.542  0.2113  0.0681 -0.5462
 3898SOL    HW111513   4.288   0.516   1.557  0.3511 -0.0652 -0.8817
 3898SOL    HW211514   4.424   0.588   1.502  0.7107  0.3093  0.4491
 3899SOL     OW11515   0.203   4.038   4.929  0.0588 -0.6737  0.0702
 3899SOL    HW111516   0.213   4.135   4.906 -1.2967 -0.0032  2.0397
 3899SOL    HW211517   0.253   3.983   4.863  1.3062  1.3866 -0.8013
 3900SOL     OW11518   4.772   3.192   3.559  0.2104 -0.3496  0.0169
 3900SOL    HW111519   4.714   3.218   3.636 -1.3114  1.1115 -1.5463
 3900SOL    HW211520   4.848   3.256   3.552  0.6545 -0.7994  0.5879
 3901SOL     OW11521   2.756   3.146   4.377  0.7106  0.2042  0.1491
 3901SOL    HW111522   2.814   3.064   4.379 -0.5216 -0.6784  1.0227
 3901SOL    HW211523   2.681   3.132   4.313  0.0291  0.3067  0.9070
 3902SOL     OW11524   0.163   2.278   0.331 -0.6625  0.0092 -0.2156
 3902SOL    HW111525   0.258   2.307   0.331 -0.5308 -0.3987 -0.7286
 3902SOL    HW211526   0.103   2.356   0.313 -0.4102  0.2268 -0.1035
 3903SOL     OW11527   3.615   3.373   4.259  0.3928 -0.1880  0.2394
 3903SOL    HW111528   3.645   3.310   4.188 -0.8815  0.0424 -0.5497
 3903SOL    HW211529   3.636   3.467   4.231  1.7734 -0.2113  1.1472
 3904SOL     OW11530   4.813   4.857   2.107  0.2007 -0.4696  0.1427
 3904SOL    HW111531   4.774   4.826   2.194  0.6230 -1.4170  0.0132
 3904SOL    HW211532   4.858   4.945   2.120 -0.3131 -0.2810  0.7238
 3905SOL     OW11533   2.194   3.217   2.135 -0.1031  0.4842  1.0307
 3905SOL    HW111534   2.187   3.317   2.138 -0.5554  0.7393 -2.8713
 3905SOL    HW211535   2.280   3.192   2.090 -0.6900 -0.7920  0.5798
 3906SOL     OW11536   2.662   2.416   2.498  0.0770  0.3136 -0.2253
 3906SOL    HW111537   2.667   2.354   2.420  0.7469  0.7189 -0.5176
 3906SOL    HW211538   2.754   2.429   2.537 -0.5437 -1.8871  2.2537
 3907SOL     OW11539   4.062   1.901   0.515 -0.3328 -0.2763 -0.2866
 3907SOL    HW111540   4.054   1.910   0.416 -0.0489 -0.0630 -0.2931
 3907SOL    HW211541   4.152   1.933   0.544 -1.2131  1.8068  0.3004
 3908SOL     OW11542   1.277   0.718   1.062  0.3356 -0.3530  0.1064
 3908SOL    HW111543   1.225   0.758   0.987 -0.4439 -1.5003 -0.0026
 3908SOL    HW211544   1.217   0.706   1.142  0.1675 -2.3812 -0.2602
 3909SOL     OW11545   0.500   1.279   4.297 -0.0028 -0.1679  0.1338
 3909SOL    HW111546   0.411   1.319   4.277 -0.2958 -0.4807  0.8139
 3909SOL    HW211547   0.566   1.352   4.316 -0.8153  0.0172  2.5659
 3910SOL     OW11548   2.064   1.119   1.073  0.3045  0.8292  0.0306
 3910SOL    HW111549   2.021   1.126   0.983 -1.0627  2.1587  0.7366
 3910SOL    HW211550   2.037   1.034   1.117 -0.4957  0.9947 -0.1206
 3911SOL     OW11551   4.761   2.900   1.068  0.4341 -0.2972  0.4065
 3911SOL    HW111552   4.786   2.809   1.034 -0.2260  0.1906 -1.4976
 3911SOL    HW211553   4.843   2.948   1.098  0.8702 -1.2770  0.8172
 3912SOL     OW11554   1.388   1.075   3.330  0.0375  0.6110  0.1418
 3912SOL    HW111555   1.289   1.088   3.333 -0.0809 -0.2559  3.8069
 3912SOL    HW211556   1.433   1.152   3.376  0.7073 -0.9567  2.2718
 3913SOL     OW11557   4.362   0.855   0.850  0.3926  0.4107 -0.2113
 3913SOL    HW111558   4.459   0.828   0.852  0.1839 -0.3272  1.1741
 3913SOL    HW211559   4.352   0.937   0.794  1.6459 -0.1361 -1.2993
 3914SOL     OW11560   0.110   2.663   4.636  0.4654  0.4150 -0.2163
 3914SOL    HW111561   0.090   2.715   4.553  1.1908 -0.7955 -1.1875
 3914SOL    HW211562   0.039   2.681   4.705  0.3463  2.1315 -0.7463
 3915SOL     OW11563   4.277   2.753   3.351  0.5587 -0.1935  0.2203
 3915SOL    HW111564   4.351   2.694   3.320 -0.7171 -1.3859 -0.6927
 3915SOL    HW211565   4.303   2.849   3.341  3.0381 -0.5018  2.5720
 3916SOL     OW11566   4.399   3.020   1.671 -0.0636 -0.4562 -0.0963
 3916SOL    HW111567   4.475   3.002   1.734 -0.6473 -1.3523  0.3749
 3916SOL    HW211568   4.341   3.092   1.709 -0.0156 -0.4913  0.0473
 3917SOL     OW11569   3.752   0.880   0.737 -0.2682 -0.0203 -0.2851
 3917SOL    HW111570   3.803   0.960   0.769 -2.2634  0.5523  1.6543
 3917SOL    HW211571   3.681   0.910   0.672 -1.2830 -0.1090  0.7532
 3918SOL     OW11572   3.081   1.654   3.757 -0.1565  0.5597 -0.0378
 3918SOL    HW111573   3.077   1.559   3.787 -0.4663  0.6855  0.3330
 3918SOL    HW211574   2.991   1.696   3.770  0.2194  1.1603  0.6603
 3919SOL     OW11575   4.470   1.293   2.112 -0.2353  0.2598 -0.1167
 3919SOL    HW111576   4.436   1.380   2.146 -0.9354  0.6540 -1.7523
 3919SOL    HW211577   4.550   1.266   2.165 -1.4845  0.6103  2.1001
 3920SOL     OW11578   1.243   0.510   2.214 -0.0957 -0.3211 -0.1200
 3920SOL    HW111579   1.340   0.511   2.190 -0.7891  0.4058 -3.3170
 3920SOL    HW211580   1.226   0.578   2.286  1.5127  0.7341 -0.6814
 3921SOL     OW11581   3.693   2.508   3.058 -0.7747 -0.1698  0.4933
 3921SOL    HW111582   3.779   2.503   3.108 -1.2622  0.4389  1.4223
 3921SOL    HW211583   3.622   2.547   3.117 -1.1517  1.4409 -0.9427
 3922SOL     OW11584   2.701   2.249   0.671 -0.0786 -0.7537  0.3179
 3922SOL    HW111585   2.631   2.282   0.735 -0.6038 -2.1390  0.5069
 3922SOL    HW211586   2.656   2.199   0.597  0.6633 -0.8704 -0.0579
 3923SOL     OW11587   1.140   0.540   1.477  0.2793 -0.1297 -0.3853
 3923SOL    HW111588   1.132   0.443   1.457 -0.0651  0.1902 -1.9768
 3923SOL    HW211589   1.052   0.574   1.512  0.9007 -0.7049  1.9317
 3924SOL     OW11590   3.836   3.046   1.374  0.1605 -0.7649  0.1126
 3924SOL    HW111591   3.872   3.063   1.465  1.5313 -0.4674 -0.4672
 3924SOL    HW211592   3.887   3.100   1.307 -0.4800 -1.3705 -0.8907
 3925SOL     OW11593   2.764   2.460   1.949 -0.1605 -0.2986 -0.2346
 3925SOL    HW111594   2.759   2.534   2.016  0.7236 -0.3261 -0.1172
 3925SOL    HW211595   2.740   2.374   1.993  1.7216 -0.5362  0.4504
 3926SOL     OW11596   4.448   4.102   3.541 -0.4398 -0.4852 -0.0370
 3926SOL    HW111597   4.470   4.110   3.638 -0.4762  1.1812 -0.1411
 3926SOL    HW211598   4.499   4.171   3.489 -2.0406  0.0734 -0.9345
 3927SOL     OW11599   4.521   2.891   2.552  0.0472  0.0792 -0.5856
 3927SOL    HW111600   4.587   2.933   2.490  1.1556 -2.3543 -1.1610
 3927SOL    HW211601   4.532   2.930   2.644  1.5076  0.5172 -0.9304
 3928SOL     OW11602   2.745   0.315   0.851  0.0706 -0.2504  0.0129
 3928SOL    HW111603   2.680   0.280   0.918 -0.4887  0.2793 -0.2376
 3928SOL    HW211604   2.837   0.286   0.875 -0.3009 -1.3675  0.1378
 3929SOL     OW11605   0.103   4.397   4.348 -0.1095  0.2213 -0.4375
 3929SOL    HW111606   0.056   4.330   4.291  0.1914  0.3736 -0.8723
 3929SOL    HW211607   0.133   4.474   4.291 -2.2637  1.7349  0.3615
 3930SOL     OW11608   2.328   2.609   1.338 -0.2781  0.3166 -0.6379
 3930SOL    HW111609   2.283   2.692   1.305 -0.5555  0.2443 -0.4490
 3930SOL    HW211610   2.258   2.541   1.362 -0.1190  0.6871  0.9446
 3931SOL     OW11611   4.276   1.510   0.893  0.2641 -0.4339 -0.1459
 3931SOL    HW111612   4.177   1.503   0.901  0.3370 -0.0171  1.7431
 3931SOL    HW211613   4.315   1.533   0.983  1.8910  1.4281 -1.2413
 3932SOL     OW11614   0.214   2.466   3.437 -0.7533  0.1739  0.0720
 3932SOL    HW111615   0.179   2.399   3.503 -1.3126  0.0002 -0.3871
 3932SOL    HW211616   0.172   2.555   3.455 -0.5097  0.2498  0.2719
 3933SOL     OW11617   1.515   4.490   4.517  0.5218  0.0030 -0.2877
 3933SOL    HW111618   1.440   4.483   4.452  0.6983 -3.2705 -0.3103
 3933SOL    HW211619   1.601   4.466   4.472  0.7190 -1.8281  0.9455
 3934SOL     OW11620   1.949   0.009   1.586  0.2005 -0.2002  0.1062
 3934SOL    HW111621   2.016   0.071   1.626 -0.2172  1.2364 -1.3064
 3934SOL    HW211622   1.985  -0.027   1.500  0.2421 -1.5682  0.6825
 3935SOL     OW11623   3.482   0.448   2.528 -0.1480 -0.2204 -0.4167
 3935SOL    HW111624   3.444   0.518   2.467  1.0250  0.2732 -0.5926
 3935SOL    HW211625   3.487   0.361   2.479  1.6876  0.3820 -1.4020
 3936SOL     OW11626   4.392   2.998   3.282  0.2233 -0.4868  0.2821
 3936SOL    HW111627   4.380   3.096   3.265 -1.1436 -0.7042 -0.2050
 3936SOL    HW211628   4.459   2.984   3.354 -1.0532  0.9087  1.8290
 3937SOL     OW11629   1.356   3.225   1.588 -0.2222  0.1373  0.2568
 3937SOL    HW111630   1.338   3.322   1.575 -0.9463 -0.2390 -2.2232
 3937SOL    HW211631   1.454   3.209   1.587 -0.1208  0.7459 -0.4783
 3938SOL     OW11632   1.126   1.985   1.390  0.2384 -0.3232  0.0688
 3938SOL    HW111633   1.062   2.030   1.454 -1.0282 -0.8804 -0.7740
 3938SOL    HW211634   1.188   2.054   1.352 -1.5952  0.7772 -1.1127
 3939SOL     OW11635   1.214   0.498   0.912  0.0426  0.3364  0.0605
 3939SOL    HW111636   1.259   0.555   0.980 -0.8027  0.7710  0.2633
 3939SOL    HW211637   1.134   0.454   0.952  1.1356 -1.6858  0.1569
 3940SOL     OW11638   2.753   4.368   1.326 -0.1360 -0.2519  0.3773
 3940SOL    HW111639   2.738   4.386   1.424  1.5272  1.6001  0.3481
 3940SOL    HW211640   2.687   4.421   1.273 -1.4360 -1.7189  0.4578
 3941SOL     OW11641   4.171   2.559   1.984 -0.6354 -0.1778 -0.0698
 3941SOL    HW111642   4.118   2.644   1.979  0.5064  0.4865 -2.6095
 3941SOL    HW211643   4.267   2.579   1.966 -0.3318 -2.0033 -0.6910
 3942SOL     OW11644   4.763   4.758   3.891 -0.3638 -0.0966 -0.3114
 3942SOL    HW111645   4.788   4.728   3.983 -0.0772 -0.9742 -0.6636
 3942SOL    HW211646   4.843   4.753   3.831 -0.6197  0.1700 -0.6784
 3943SOL     OW11647   4.617   4.614   2.979 -0.0175  0.2302  0.4695
 3943SOL    HW111648   4.642   4.705   2.945 -0.7235  0.2393 -0.0455
 3943SOL    HW211649   4.522   4.595   2.956  0.0628 -0.5611  0.7637
 3944SOL     OW11650   0.478   1.870   0.916  0.0225 -0.0077  1.2286
 3944SOL    HW111651   0.381   1.878   0.893  0.0127  1.0852  1.6091
 3944SOL    HW211652   0.488   1.810   0.996 -0.4928  1.0278  2.0976
 3945SOL     OW11653   4.032   3.035   0.678  0.2088 -0.1970  0.0405
 3945SOL    HW111654   4.092   2.981   0.737 -0.2080 -0.3555  0.3184
 3945SOL    HW211655   4.056   3.018   0.582 -0.6291 -1.7431  0.0627
 3946SOL     OW11656   2.093   2.763   1.312  0.5152  0.1353  0.1308
 3946SOL    HW111657   2.006   2.745   1.266 -0.5733  2.4835  1.1102
 3946SOL    HW211658   2.077   2.773   1.410  0.9727  4.9058 -0.0613
 3947SOL     OW11659   4.599   2.320   0.250  0.2199  0.4173  0.0417
 3947SOL    HW111660   4.591   2.413   0.284  0.4839  1.1894 -1.8899
 3947SOL    HW211661   4.522   2.299   0.189  0.2663 -0.5636  0.2932
 3948SOL     OW11662   0.237   4.310   4.913 -0.1600  0.4645 -0.1067
 3948SOL    HW111663   0.142   4.324   4.886  0.1564  0.2810 -1.3849
 3948SOL    HW211664   0.246   4.320   5.012 -1.3752  1.1858 -0.0599
 3949SOL     OW11665   3.169   0.551   4.769 -0.7680 -0.2524 -0.0140
 3949SOL    HW111666   3.181   0.625   4.703 -1.1789  0.6707  0.9232
 3949SOL    HW211667   3.257   0.531   4.813 -0.1932 -1.7947 -1.7601
 3950SOL     OW11668   3.744   1.801   4.630  0.3286  0.1471 -0.0809
 3950SOL    HW111669   3.730   1.725   4.567 -1.4768 -0.5665  1.0848
 3950SOL    HW211670   3.689   1.879   4.601 -0.4110 -0.1419  0.5218
 3951SOL     OW11671   1.948   4.774   2.172  0.2468  0.1686 -0.5009
 3951SOL    HW111672   1.921   4.867   2.197  0.2574  0.4589 -1.4958
 3951SOL    HW211673   2.030   4.778   2.114 -0.6877 -0.3241 -1.9095
 3952SOL     OW11674   2.029   1.266   4.938 -0.1516  0.2893 -0.2267
 3952SOL    HW111675   2.004   1.315   5.021  1.2043  1.0045 -0.2059
 3952SOL    HW211676   2.129   1.269   4.926 -0.2897 -0.0401 -1.7299
 3953SOL     OW11677   0.149   2.111   2.123  0.2421  0.5932 -0.2443
 3953SOL    HW111678   0.101   2.093   2.209  1.3215  3.4221  1.0566
 3953SOL    HW211679   0.145   2.208   2.102  1.8288  0.2800 -2.3046
 3954SOL     OW11680   3.044   2.468   2.274  0.5922 -0.0439  0.5666
 3954SOL    HW111681   2.999   2.380   2.286 -2.7033  1.7082  2.4230
 3954SOL    HW211682   3.008   2.513   2.193  2.6038 -0.5010 -0.6428
 3955SOL     OW11683   4.699   0.316   4.463 -0.2295 -0.1356  0.4468
 3955SOL    HW111684   4.614   0.336   4.415 -1.0096 -1.3986  1.2411
 3955SOL    HW211685   4.679   0.274   4.552  1.2081  0.2980  1.0181
 3956SOL     OW11686   2.407   3.061   1.008  0.5665  0.2261  0.3922
 3956SOL    HW111687   2.338   3.052   1.080  0.8022  1.1932  0.7488
 3956SOL    HW211688   2.363   3.084   0.922  0.4071  0.4404  0.5316
 3957SOL     OW11689   3.907   2.066   2.631  0.7504 -0.2308  0.3255
 3957SOL    HW111690   3.913   2.066   2.531 -0.9741  0.8617  0.1633
 3957SOL    HW211691   3.887   1.974   2.663  0.3794 -0.4223 -0.4273
 3958SOL     OW11692   0.373   1.483   3.235 -0.1219 -0.1551  0.1017
 3958SOL    HW111693   0.292   1.429   3.255 -0.4039 -0.2693 -1.2404
 3958SOL    HW211694   0.454   1.423   3.235 -0.2187 -0.2859  0.1510
 3959SOL     OW11695   2.894   2.723   2.349 -0.5975  0.5878 -0.1259
 3959SOL    HW111696   2.962   2.652   2.331  0.2128  1.3865 -0.3031
 3959SOL    HW211697   2.869   2.721   2.446  0.1151  0.6452  0.0661
 3960SOL     OW11698   4.297   0.206   4.958  0.2378  0.1353  0.0261
 3960SOL    HW111699   4.366   0.254   4.905  0.1745  0.1830 -0.0126
 3960SOL    HW211700   4.324   0.110   4.969  1.1885  0.5265  1.4965
 3961SOL     OW11701   0.328   1.481   0.336  0.1411  0.1369 -0.4410
 3961SOL    HW111702   0.399   1.541   0.299  1.2137 -0.3371  0.7923
 3961SOL    HW211703   0.282   1.434   0.261 -0.0175  1.6927 -1.3621
 3962SOL     OW11704   0.992   4.639   1.548  0.3030  0.6207 -0.3160
 3962SOL    HW111705   0.986   4.594   1.459  0.2383  0.7599 -0.3812
 3962SOL    HW211706   0.905   4.683   1.569 -0.5311 -1.4258  0.8755
 3963SOL     OW11707   3.380   1.540   2.091 -0.1893  0.4209  0.0405
 3963SOL    HW111708   3.447   1.526   2.164 -0.2782  2.0064  0.4575
 3963SOL    HW211709   3.292   1.502   2.119 -0.0401  0.3842  0.4704
 3964SOL     OW11710   4.536   3.252   0.316 -0.3602  0.1160 -0.3829
 3964SOL    HW111711   4.439   3.244   0.339 -0.2591 -1.0487 -0.2988
 3964SOL    HW211712   4.591   3.210   0.388  0.0561 -1.7531 -1.7139
 3965SOL     OW11713   4.776   2.366   0.007 -0.2818 -0.1072 -0.5872
 3965SOL    HW111714   4.741   2.363  -0.087 -0.9498 -0.6704 -0.3245
 3965SOL    HW211715   4.704   2.337   0.070 -0.0514  0.9167  0.1650
 3966SOL     OW11716   3.317   1.187   3.151  0.3300  0.0115 -0.7678
 3966SOL    HW111717   3.384   1.138   3.096  0.9220  0.2660 -0.2868
 3966SOL    HW211718   3.338   1.285   3.151  0.1708  0.0514 -0.3302
 3967SOL     OW11719   0.882   2.577   4.488 -0.3658 -0.0676 -0.1779
 3967SOL    HW111720   0.845   2.496   4.534  2.3548 -1.6263 -0.4770
 3967SOL    HW211721   0.912   2.643   4.557  3.1528 -2.1419  0.5709
 3968SOL     OW11722   0.241   0.708   2.498  0.6111 -0.3426  0.3059
 3968SOL    HW111723   0.265   0.628   2.553  0.9313 -0.4217  0.0507
 3968SOL    HW211724   0.236   0.682   2.401  3.1392  0.4418 -0.1104
 3969SOL     OW11725   3.294   3.054   4.323  0.1154  0.5694 -0.0530
 3969SOL    HW111726   3.236   3.055   4.406  0.8502 -0.1171  0.4872
 3969SOL    HW211727   3.282   3.139   4.273 -1.3140  0.4819  0.0819
 3970SOL     OW11728   3.239   0.940   2.253 -0.2394 -0.0224 -0.5798
 3970SOL    HW111729   3.273   0.859   2.300  2.7592  1.3026 -0.2124
 3970SOL    HW211730   3.174   0.913   2.182 -1.5395 -2.4274  1.3720
 3971SOL     OW11731   3.894   4.737   2.042  0.1183  0.0844  0.3786
 3971SOL    HW111732   3.846   4.778   2.120  0.7618 -0.1439  0.8998
 3971SOL    HW211733   3.830   4.728   1.965 -0.9919 -1.2706  1.4184
 3972SOL     OW11734   1.626   3.622   0.004 -0.1786 -0.3251 -0.1720
 3972SOL    HW111735   1.679   3.564  -0.058 -1.8937 -1.0479 -1.0202
 3972SOL    HW211736   1.602   3.570   0.086  2.2034  0.6689  1.2728
 3973SOL     OW11737   4.070   1.240   2.830 -0.1663  0.0987  0.2122
 3973SOL    HW111738   4.063   1.328   2.783  1.8458  0.3487  0.2864
 3973SOL    HW211739   4.086   1.168   2.763 -1.4822 -0.1966  0.1835
 3974SOL     OW11740   3.726   3.587   1.443 -0.4479 -0.0780 -0.0935
 3974SOL    HW111741   3.687   3.496   1.457  3.2738 -1.6332  1.6538
 3974SOL    HW211742   3.786   3.609   1.520  1.8833  2.0742 -2.3621
 3975SOL     OW11743   1.663   1.661   3.670  0.2159 -0.4120 -0.1551
 3975SOL    HW111744   1.585   1.704   3.625  0.6340 -0.3495 -0.8407
 3975SOL    HW211745   1.644   1.649   3.767 -0.8009 -0.7612 -0.3896
 3976SOL     OW11746   0.299   0.081   1.659  0.3043  0.3325 -0.0313
 3976SOL    HW111747   0.241   0.158   1.632 -0.6026 -0.7645 -1.3243
 3976SOL    HW211748   0.381   0.079   1.602  0.7532  0.8293  0.5850
 3977SOL     OW11749   3.355   1.174   2.205 -0.1690  0.4916 -0.2475
 3977SOL    HW111750   3.301   1.099   2.243  1.0007 -0.3119 -0.1013
 3977SOL    HW211751   3.398   1.144   2.120  1.0719  0.6462  0.2977
 3978SOL     OW11752   0.948   4.133   3.106  0.1976  0.3543 -0.2576
 3978SOL    HW111753   0.914   4.226   3.102  2.4192  1.2577  0.0814
 3978SOL    HW211754   1.048   4.134   3.100  0.3147 -1.9669  0.2609
 3979SOL     OW11755   2.994   2.511   3.641  0.1357 -0.7680  0.3704
 3979SOL    HW111756   2.976   2.444   3.712  0.3646 -2.9872 -1.5531
 3979SOL    HW211757   3.087   2.546   3.651 -0.5321  0.6740  2.3914
 3980SOL     OW11758   1.577   2.055   3.007 -0.0892 -0.2290  0.2938
 3980SOL    HW111759   1.619   1.996   2.938  0.5685  0.1407  0.3681
 3980SOL    HW211760   1.492   2.093   2.971 -1.2868 -2.3491  0.7766
 3981SOL     OW11761   3.778   2.171   4.967 -0.4555  0.7869 -0.4215
 3981SOL    HW111762   3.696   2.114   4.961 -0.7518  1.3096 -1.8508
 3981SOL    HW211763   3.813   2.170   5.061 -2.0062  0.4215  0.1900
 3982SOL     OW11764   3.349   4.785   3.195 -0.5922 -0.0365 -0.2608
 3982SOL    HW111765   3.293   4.750   3.271 -1.0426  0.8945 -0.1509
 3982SOL    HW211766   3.355   4.884   3.201 -1.0303  0.1068 -1.7143
 3983SOL     OW11767   4.120   2.587   3.608 -0.0446 -0.0070 -0.0845
 3983SOL    HW111768   4.135   2.637   3.523 -0.7308  0.7079  0.1999
 3983SOL    HW211769   4.170   2.501   3.605  1.5153  0.8761 -0.4115
 3984SOL     OW11770   1.955   0.072   0.865 -0.9234 -0.2297 -0.6795
 3984SOL    HW111771   1.880   0.080   0.930 -0.9536 -0.3187 -0.7036
 3984SOL    HW211772   1.948  -0.015   0.816  0.5224 -1.3526  0.9829
 3985SOL     OW11773   2.993   1.324   3.645  0.3222  0.3585 -0.0584
 3985SOL    HW111774   3.066   1.341   3.580  0.2222 -0.2530 -0.3300
 3985SOL    HW211775   2.918   1.389   3.629  0.0093 -0.2241 -0.9950
 3986SOL     OW11776   0.205   2.390   1.996 -0.3769  0.9027 -0.2249
 3986SOL    HW111777   0.222   2.382   1.897  0.2991  1.6659 -0.1868
 3986SOL    HW211778   0.114   2.427   2.011 -1.0335 -0.5205 -0.5193
 3987SOL     OW11779   0.239   3.953   3.751  0.1408 -0.1323  0.0530
 3987SOL    HW111780   0.175   3.887   3.789 -0.9225  1.5073  1.2738
 3987SOL    HW211781   0.329   3.911   3.741  0.0528 -1.1794  2.8224
 3988SOL     OW11782   3.433   1.371   3.374 -0.0019 -0.2166  0.1978
 3988SOL    HW111783   3.509   1.307   3.381 -0.6024 -0.7921  1.9441
 3988SOL    HW211784   3.443   1.425   3.290  1.4844 -1.3254 -0.3882
 3989SOL     OW11785   0.207   0.421   4.772  0.2336 -0.4413 -0.8609
 3989SOL    HW111786   0.306   0.438   4.778 -0.0213  0.9735 -0.1217
 3989SOL    HW211787   0.168   0.481   4.702 -0.4271  0.7312  0.4727
 3990SOL     OW11788   4.128   1.950   4.371 -0.1875 -0.5975 -0.2137
 3990SOL    HW111789   4.170   1.859   4.369  0.3523 -0.3652  0.5508
 3990SOL    HW211790   4.199   2.020   4.369 -0.4833 -0.2041  1.7596
 3991SOL     OW11791   4.500   2.312   4.661 -0.2963 -0.1424  0.1344
 3991SOL    HW111792   4.454   2.394   4.694  2.0784  1.5430 -0.5326
 3991SOL    HW211793   4.516   2.320   4.563  0.7459 -1.0233  0.2134
 3992SOL     OW11794   2.226   2.634   1.025  0.0708 -0.4526  0.3362
 3992SOL    HW111795   2.321   2.606   1.017  0.8078  1.5769  1.1747
 3992SOL    HW211796   2.189   2.601   1.112  0.5341  0.1162  0.7546
 3993SOL     OW11797   4.809   4.927   1.463  0.1996 -0.3495 -0.6144
 3993SOL    HW111798   4.812   4.936   1.363  0.8653  1.7526 -0.4454
 3993SOL    HW211799   4.898   4.951   1.502 -0.2095 -0.6269  0.5303
 3994SOL     OW11800   3.580   1.268   0.648 -0.0080 -0.1057 -0.4473
 3994SOL    HW111801   3.665   1.261   0.701  0.1997 -0.2287 -0.7893
 3994SOL    HW211802   3.501   1.256   0.708  0.2483 -1.9788 -0.4195
 3995SOL     OW11803   0.619   2.716   0.281 -0.3904  0.2557 -0.1960
 3995SOL    HW111804   0.530   2.743   0.243  0.9271  1.5298 -2.6515
 3995SOL    HW211805   0.638   2.768   0.364 -1.4516  0.7860 -0.2735
 3996SOL     OW11806   3.938   4.490   4.808 -0.5777  0.3241  0.1987
 3996SOL    HW111807   3.867   4.530   4.866 -1.2792  0.4717 -0.7212
 3996SOL    HW211808   3.951   4.548   4.727 -0.1661 -0.2603 -0.1609
 3997SOL     OW11809   0.706   3.813   4.790  0.3936 -0.3231 -0.2891
 3997SOL    HW111810   0.696   3.804   4.691  0.9375 -1.9338 -0.2290
 3997SOL    HW211811   0.620   3.786   4.834  0.1559  0.3813 -0.3039
 3998SOL     OW11812   4.949   4.520   1.770 -0.3714 -0.0933 -0.9672
 3998SOL    HW111813   4.978   4.598   1.826 -1.0254 -0.2969 -0.3404
 3998SOL    HW211814   4.909   4.554   1.685  1.3781  0.2059 -1.7130
 3999SOL     OW11815   3.654   3.516   0.612 -0.4165 -0.2065 -0.4948
 3999SOL    HW111816   3.704   3.530   0.698 -0.6264  0.5085 -0.4829
 3999SOL    HW211817   3.683   3.585   0.546 -2.2133  0.9798 -0.1222
 4000SOL     OW11818   3.356   4.898   2.183 -0.5857 -0.2368  0.4445
 4000SOL    HW111819   3.358   4.883   2.084  0.1512 -2.0625  0.6867
 4000SOL    HW211820   3.297   4.829   2.225  0.0954 -0.2595  1.3785
 4001SOL     OW11821   0.357   2.745   4.670  0.3247  0.0924 -0.2765
 4001SOL    HW111822   0.269   2.707   4.642  0.3238 -0.0367 -0.0992
 4001SOL    HW211823   0.349   2.845   4.676 -0.1858 -0.0050  1.0092
 4002SOL     OW11824   1.294   2.073   4.852 -0.2121  0.5305 -0.6481
 4002SOL    HW111825   1.358   2.091   4.777 -1.2500 -0.8979 -1.9303
 4002SOL    HW211826   1.240   1.991   4.832 -1.0865  0.5546  1.3119
 4003SOL     OW11827   4.608   3.248   2.953  0.4492  0.9700 -0.0922
 4003SOL    HW111828   4.544   3.320   2.980 -1.5652 -0.4732 -0.8265
 4003SOL    HW211829   4.639   3.199   3.035 -1.0794  0.3426  0.1499
 4004SOL     OW11830   1.117   2.778   3.064  0.0407 -0.3074 -0.3113
 4004SOL    HW111831   1.106   2.758   2.966 -2.3046 -0.5138 -0.0632
 4004SOL    HW211832   1.049   2.726   3.116 -0.3089  1.5591  1.1903
 4005SOL     OW11833   5.016   5.026   4.534  0.4514 -0.2895 -0.1173
 4005SOL    HW111834   5.057   5.105   4.579  0.6671 -0.7282  0.4723
 4005SOL    HW211835   4.944   5.057   4.471  0.8587  0.4018 -0.2530
 4006SOL     OW11836   0.364   0.679   2.809 -0.0154  0.2141  0.0310
 4006SOL    HW111837   0.461   0.698   2.794  0.0756  0.1099  0.4900
 4006SOL    HW211838   0.349   0.580   2.805 -0.0069  0.1908  0.5215
 4007SOL     OW11839   3.883   3.213   4.402  0.0387  0.1220 -0.0485
 4007SOL    HW111840   3.906   3.310   4.415 -1.1987  0.3578  0.5786
 4007SOL    HW211841   3.825   3.203   4.321 -0.8673  0.0896  0.5938
 4008SOL     OW11842   3.235   4.117   3.637 -0.3275  0.6388  0.5816
 4008SOL    HW111843   3.219   4.172   3.719  0.2081  0.1055  1.0552
 4008SOL    HW211844   3.312   4.055   3.653  1.5200  2.2924 -1.1547
 4009SOL     OW11845   4.456   2.874   1.939 -0.3221 -0.9816 -0.2199
 4009SOL    HW111846   4.455   2.778   1.912 -2.3221 -0.8239 -0.8656
 4009SOL    HW211847   4.393   2.888   2.015 -0.5086 -0.0686 -0.5326
 4010SOL     OW11848   1.351   3.008   2.827 -0.3097  0.4072 -0.7775
 4010SOL    HW111849   1.396   2.922   2.851 -0.3812  0.4136 -0.6225
 4010SOL    HW211850   1.419   3.080   2.816 -0.1431  0.0919 -1.9434
 4011SOL     OW11851   4.366   2.217   3.920 -0.0662  0.2968 -0.2343
 4011SOL    HW111852   4.354   2.145   3.988  0.9836 -0.0482 -0.3999
 4011SOL    HW211853   4.463   2.223   3.895 -0.3605  0.8023 -1.2766
 4012SOL     OW11854   2.147   4.157   3.535  0.0226  0.1235 -0.1720
 4012SOL    HW111855   2.048   4.155   3.554  0.1098  1.1557  0.5053
 4012SOL    HW211856   2.182   4.248   3.558  1.8136 -1.2459  3.1414
 4013SOL     OW11857   3.866   2.149   4.079 -0.0616  0.1777  0.5164
 4013SOL    HW111858   3.948   2.205   4.069  0.8900 -1.2594  0.1292
 4013SOL    HW211859   3.888   2.062   4.121 -1.1298 -0.7926 -0.8173
 4014SOL     OW11860   1.041   3.250   1.529 -0.0419 -0.2916 -0.6063
 4014SOL    HW111861   0.952   3.289   1.552  0.6693  1.8062 -1.1910
 4014SOL    HW211862   1.084   3.213   1.611  0.9045  3.7853  0.9508
 4015SOL     OW11863   3.069   3.714   3.755  0.1385 -0.2421 -0.0002
 4015SOL    HW111864   3.105   3.712   3.662  0.8043 -0.4420  0.2536
 4015SOL    HW211865   3.037   3.806   3.777  0.0867 -0.1662 -0.3831
 4016SOL     OW11866   1.963   2.380   2.296  0.5363  0.1181  0.1101
 4016SOL    HW111867   1.982   2.457   2.234  0.3579  0.7487  0.8205
 4016SOL    HW211868   2.039   2.316   2.295  0.2326 -0.2584 -1.3047
 4017SOL     OW11869   2.706   4.838   4.038  0.3010 -0.2852  0.3127
 4017SOL    HW111870   2.628   4.893   4.069 -0.4284 -2.5153  2.8238
 4017SOL    HW211871   2.782   4.899   4.016 -0.3157  1.8291  3.3087
 4018SOL     OW11872   4.809   2.400   4.340  0.3825  0.8591  0.1471
 4018SOL    HW111873   4.905   2.386   4.367 -0.1021  0.9149  1.9893
 4018SOL    HW211874   4.795   2.360   4.249  1.5126 -1.6376  0.9569
 4019SOL     OW11875   4.076   1.475   0.566 -0.1884 -0.3051  0.2233
 4019SOL    HW111876   4.021   1.452   0.486 -0.2739  1.1236 -0.1640
 4019SOL    HW211877   4.129   1.396   0.595 -0.8536 -1.0989 -0.6904
 4020SOL     OW11878   4.480   3.634   3.523  0.2197  0.2892  0.1375
 4020SOL    HW111879   4.433   3.559   3.569 -0.5494  0.6258 -0.0701
 4020SOL    HW211880   4.444   3.643   3.430 -0.7644  1.8187  0.6131
 4021SOL     OW11881   2.568   1.230   3.232 -0.5569 -1.0288  0.2932
 4021SOL    HW111882   2.571   1.321   3.274 -2.8342 -0.0219 -1.4487
 4021SOL    HW211883   2.629   1.228   3.152 -2.4024 -0.0435 -1.2306
 4022SOL     OW11884   2.085   1.935   0.583  0.2869  0.3210 -0.6628
 4022SOL    HW111885   2.134   2.005   0.531  0.2248  1.2778  0.5316
 4022SOL    HW211886   2.012   1.978   0.635 -0.7415 -0.8640 -1.0927
 4023SOL     OW11887   2.309   1.493   3.176  0.9219 -0.2149  0.2567
 4023SOL    HW111888   2.354   1.581   3.192  1.4528 -0.4937  0.3072
 4023SOL    HW211889   2.336   1.457   3.087 -0.3323  0.2947 -0.3557
 4024SOL     OW11890   2.446   1.428   0.282  0.9795 -0.2874 -0.3647
 4024SOL    HW111891   2.447   1.348   0.223  1.4381  0.5000 -1.4491
 4024SOL    HW211892   2.380   1.414   0.357 -1.4729 -0.3499 -2.4001
 4025SOL     OW11893   1.675   0.074   3.619 -0.0351  0.0910 -0.1706
 4025SOL    HW111894   1.690   0.104   3.525  0.1686 -2.2832 -0.9660
 4025SOL    HW211895   1.759   0.031   3.654 -0.5011 -0.1962  0.6311
 4026SOL     OW11896   3.873   4.188   0.295  0.3657 -0.0387  0.3920
 4026SOL    HW111897   3.938   4.118   0.324  2.4391  1.9711  0.8076
 4026SOL    HW211898   3.833   4.232   0.374 -1.3196 -0.9924  0.1340
 4027SOL     OW11899   4.003   3.511   1.374 -0.1216 -0.4209 -0.1187
 4027SOL    HW111900   3.904   3.500   1.386  0.0712 -1.0842  1.0394
 4027SOL    HW211901   4.027   3.608   1.386 -0.5698 -0.3364  0.1482
 4028SOL     OW11902   4.444   3.027   3.881 -0.2324  0.2803 -0.0960
 4028SOL    HW111903   4.351   2.989   3.884 -0.2092  0.1369 -0.9064
 4028SOL    HW211904   4.449   3.107   3.940 -1.1902  0.9736 -0.9168
 4029SOL     OW11905   2.989   0.246   0.926 -0.0054  0.2484 -0.0446
 4029SOL    HW111906   3.069   0.228   0.869 -0.1574  1.4276 -0.6583
 4029SOL    HW211907   3.013   0.313   0.997 -0.2703  0.0801  0.2081
 4030SOL     OW11908   4.348   3.293   3.152  0.4475  0.1899 -0.0587
 4030SOL    HW111909   4.318   3.353   3.226 -2.5013 -1.1860 -0.0048
 4030SOL    HW211910   4.381   3.348   3.075  0.6382  1.7249  1.0720
 4031SOL     OW11911   2.481   1.946   2.629 -0.3292 -0.2396 -0.8466
 4031SOL    HW111912   2.438   1.950   2.719  0.9094  0.3794 -0.2522
 4031SOL    HW211913   2.579   1.932   2.640 -0.1002  0.2570 -2.0966
 4032SOL     OW11914   2.263   1.778   3.199  0.5969  0.0730  0.7142
 4032SOL    HW111915   2.213   1.862   3.218 -0.8971 -0.5150 -0.4033
 4032SOL    HW211916   2.320   1.791   3.118  0.4555  0.0454  0.6102
 4033SOL     OW11917   2.328   3.490   2.510 -0.1011 -0.0888  0.1514
 4033SOL    HW111918   2.264   3.445   2.572 -0.6047  1.2243  0.6296
 4033SOL    HW211919   2.340   3.585   2.538  0.8933  0.0980 -0.8420
 4034SOL     OW11920   4.992   2.797   2.460  0.2534  0.1673 -0.3518
 4034SOL    HW111921   4.901   2.772   2.494 -0.0091  0.5068 -0.7932
 4034SOL    HW211922   4.993   2.894   2.437  0.3956 -0.0766 -1.4107
 4035SOL     OW11923   3.054   4.529   4.123  0.7979  0.9346  0.6516
 4035SOL    HW111924   3.077   4.433   4.141  1.9141  1.2593  1.0299
 4035SOL    HW211925   2.970   4.534   4.069  0.7399 -0.2530  0.6144
 4036SOL     OW11926   2.567   3.750   4.951  0.2561 -0.1602  0.4067
 4036SOL    HW111927   2.637   3.777   5.017  0.3603 -0.4342  0.4071
 4036SOL    HW211928   2.526   3.664   4.979 -1.3445  0.8706  1.3793
 4037SOL     OW11929   4.913   0.103   1.068  0.1391  0.2223 -0.0740
 4037SOL    HW111930   4.879   0.122   0.975 -1.6695 -0.9148  0.3124
 4037SOL    HW211931   4.910   0.187   1.122 -1.6398  0.2899 -0.2154
 4038SOL     OW11932   2.937   2.001   0.387  0.3261 -0.0747 -0.0383
 4038SOL    HW111933   2.944   2.062   0.466  0.6829 -1.0675  0.7202
 4038SOL    HW211934   2.867   2.036   0.324  1.4674  1.8403 -0.3048
 4039SOL     OW11935   0.337   3.692   2.993 -0.1906 -0.3203  0.3461
 4039SOL    HW111936   0.262   3.758   2.980 -0.1435 -0.3399 -0.0576
 4039SOL    HW211937   0.419   3.725   2.945 -0.0075 -0.4067  0.5995
 4040SOL     OW11938   4.596   2.798   0.485 -0.0533 -0.3082  0.3445
 4040SOL    HW111939   4.571   2.863   0.412  0.8553 -0.5166 -0.1765
 4040SOL    HW211940   4.521   2.791   0.550 -0.9332 -0.1734 -0.6160
 4041SOL     OW11941   2.099   1.726   2.156  0.6179  0.3129 -0.0727
 4041SOL    HW111942   2.164   1.727   2.231 -0.1375 -1.2655  0.6502
 4041SOL    HW211943   2.050   1.639   2.155 -1.3078  1.3333 -0.7366
 4042SOL     OW11944   1.409   1.152   2.784 -0.1614  0.4692 -0.1253
 4042SOL    HW111945   1.409   1.052   2.796  2.3438  0.3648 -0.4209
 4042SOL    HW211946   1.388   1.174   2.689 -1.9818  0.3246  0.2147
 4043SOL     OW11947   4.708   1.621   1.827  0.1551  0.0061  0.4046
 4043SOL    HW111948   4.714   1.572   1.913 -1.7374  1.7983  1.6685
 4043SOL    HW211949   4.614   1.617   1.793  1.0219 -1.3583 -2.0749
 4044SOL     OW11950   1.284   0.750   3.828  0.3581 -0.0836 -0.1289
 4044SOL    HW111951   1.307   0.778   3.921 -0.9915  3.4947 -0.7071
 4044SOL    HW211952   1.365   0.755   3.770  0.3321  2.2846 -0.0446
 4045SOL     OW11953   4.745   1.676   2.727 -0.4690 -0.3809 -0.5776
 4045SOL    HW111954   4.761   1.582   2.757 -0.1084 -0.8410 -2.0885
 4045SOL    HW211955   4.656   1.707   2.759 -0.9750 -1.5612 -0.7709
 4046SOL     OW11956   2.701   1.306   1.199 -0.4818  0.5727 -0.4586
 4046SOL    HW111957   2.669   1.216   1.170 -0.3735  0.2074  0.5273
 4046SOL    HW211958   2.725   1.360   1.118  2.3525 -1.3282 -1.0404
 4047SOL     OW11959   2.408   3.734   3.502  0.4492  0.3883  0.0165
 4047SOL    HW111960   2.431   3.722   3.598 -1.1826 -0.8669  0.3041
 4047SOL    HW211961   2.309   3.724   3.490  0.8142 -1.6797 -2.0698
 4048SOL     OW11962   0.765   4.692   1.276  0.6033  0.1160 -0.1481
 4048SOL    HW111963   0.790   4.734   1.189  1.7982  1.1223  0.6504
 4048SOL    HW211964   0.825   4.613   1.292  0.8919  0.3843  0.1051
 4049SOL     OW11965   2.432   4.946   1.856 -0.0177 -0.4079  0.4816
 4049SOL    HW111966   2.532   4.950   1.850  0.0250 -0.2297  1.2576
 4049SOL    HW211967   2.402   4.984   1.943 -0.8870  1.0992 -0.4389
 4050SOL     OW11968   0.889   2.159   3.961 -0.4661 -0.2364 -0.3526
 4050SOL    HW111969   0.862   2.116   4.048  2.0061 -1.2382  0.0019
 4050SOL    HW211970   0.809   2.204   3.921 -2.3154 -1.9589  1.1242
 4051SOL     OW11971   0.957   1.813   3.857 -0.0446  0.4783  0.0905
 4051SOL    HW111972   1.055   1.802   3.872 -0.0028  1.3787  0.6074
 4051SOL    HW211973   0.938   1.819   3.759  0.3978  0.1246 -0.0185
 4052SOL     OW11974   0.778   0.874   1.695 -0.1993  0.4235 -0.1032
 4052SOL    HW111975   0.768   0.972   1.674  0.1112  0.7737  1.3043
 4052SOL    HW211976   0.789   0.862   1.793  2.5288 -0.7979 -0.4810
 4053SOL     OW11977   1.693   3.861   3.626 -0.4211 -0.2984 -0.3173
 4053SOL    HW111978   1.613   3.876   3.684  0.3152  1.3636  0.3515
 4053SOL    HW211979   1.748   3.786   3.664 -1.9087 -1.8583 -1.1180
 4054SOL     OW11980   3.707   5.031   1.931 -0.0307 -0.7797  0.0375
 4054SOL    HW111981   3.776   5.019   2.003 -1.8282 -0.2856  1.9136
 4054SOL    HW211982   3.661   4.943   1.914 -0.6454 -0.5650  0.5853
 4055SOL     OW11983   4.083   3.677   0.968  0.1047  0.2930 -0.1078
 4055SOL    HW111984   4.076   3.601   1.033  1.6253 -1.4374 -1.8490
 4055SOL    HW211985   3.993   3.700   0.932 -0.3103 -1.0460  0.0505
 4056SOL     OW11986   4.433   3.632   2.414 -0.2632 -0.1369  0.1545
 4056SOL    HW111987   4.486   3.667   2.337 -0.1786 -1.2257 -0.3025
 4056SOL    HW211988   4.349   3.685   2.423 -0.0207  0.3478 -0.3355
 4057SOL     OW11989   2.554   1.503   4.010  0.1954 -0.5410 -0.3023
 4057SOL    HW111990   2.628   1.529   4.072  0.1622 -0.8038 -0.1500
 4057SOL    HW211991   2.530   1.580   3.952 -0.2043 -0.0934  0.4456
 4058SOL     OW11992   4.045   3.778   1.298 -0.1145 -0.1038  0.2792
 4058SOL    HW111993   4.136   3.793   1.259  0.8797  2.3714  3.1392
 4058SOL    HW211994   3.985   3.853   1.271 -0.3238 -0.0098  1.0022
 4059SOL     OW11995   3.937   3.479   0.387 -0.2936  0.2866 -0.1273
 4059SOL    HW111996   3.871   3.501   0.315 -1.2528 -0.8388  0.3738
 4059SOL    HW211997   3.965   3.563   0.433 -0.4217  0.9150 -1.1629
 4060SOL     OW11998   4.021   4.735   3.951  0.5867 -0.2075  0.3545
 4060SOL    HW111999   4.065   4.699   4.033  0.2290 -0.5031  0.4227
 4060SOL    HW212000   4.062   4.694   3.870  0.6338 -0.2644  0.4072
 4061SOL     OW12001   2.502   4.376   2.495 -0.3427 -0.2091 -0.2463
 4061SOL    HW112002   2.462   4.284   2.497 -0.6256 -0.0790  0.2706
 4061SOL    HW212003   2.532   4.397   2.402 -1.1489 -0.4526 -0.5685
 4062SOL     OW12004   2.052   3.530   1.243 -0.2861  0.0992  0.1216
 4062SOL    HW112005   2.097   3.451   1.284  0.4499  0.5570  0.2135
 4062SOL    HW212006   1.954   3.514   1.238 -0.3676 -0.0792  1.8108
 4063SOL     OW12007   0.116   0.055   3.732 -0.0289 -0.7230 -0.0739
 4063SOL    HW112008   0.097  -0.004   3.810 -0.5864 -0.1932  0.1922
 4063SOL    HW212009   0.059   0.027   3.654  0.7933 -1.4900 -0.4235
 4064SOL     OW12010   3.542   2.971   1.156 -0.2372  0.3774 -0.1234
 4064SOL    HW112011   3.620   3.021   1.194 -0.3895  0.0515  0.6223
 4064SOL    HW212012   3.538   2.987   1.057  0.8576  0.2841 -0.1937
 4065SOL     OW12013   3.837   4.196   2.576  0.0657 -0.1515 -0.2056
 4065SOL    HW112014   3.751   4.247   2.583  0.3325  0.1381  1.4291
 4065SOL    HW212015   3.911   4.260   2.556 -0.1505 -0.4850 -2.2762
 4066SOL     OW12016   3.916   0.887   2.855  0.3381 -0.5059  0.2394
 4066SOL    HW112017   3.919   0.920   2.949 -0.5674 -0.5448  0.2873
 4066SOL    HW212018   3.826   0.903   2.816  1.2047  1.1636 -1.2455
 4067SOL     OW12019   4.204   1.878   3.881  0.9288 -0.4216  0.4043
 4067SOL    HW112020   4.218   1.938   3.802 -0.7484 -0.3023  0.1434
 4067SOL    HW212021   4.212   1.783   3.853  1.4063 -0.3570  0.3252
 4068SOL     OW12022   2.137   1.661   1.447 -0.3441  0.7512 -0.0893
 4068SOL    HW112023   2.213   1.603   1.475  0.7225  3.0947  2.4194
 4068SOL    HW212024   2.055   1.638   1.500  0.1495  1.5993  1.0939
 4069SOL     OW12025   0.156   3.474   1.549 -0.0103  0.1243  0.3367
 4069SOL    HW112026   0.145   3.561   1.502 -0.4306 -0.0751  0.0555
 4069SOL    HW212027   0.230   3.481   1.616 -1.4854  1.3802  1.9331
 4070SOL     OW12028   3.911   1.121   1.297  0.2000 -0.5562  0.9224
 4070SOL    HW112029   3.992   1.173   1.267 -1.5186  1.2150 -0.9672
 4070SOL    HW212030   3.937   1.026   1.315  3.1559  0.4776  2.8239
 4071SOL     OW12031   4.975   3.669   2.748  1.0149 -0.1443 -0.6363
 4071SOL    HW112032   4.880   3.660   2.720  0.6267 -1.5237  0.9967
 4071SOL    HW212033   4.997   3.766   2.763 -0.7595  0.0535  1.0121
 4072SOL     OW12034   2.614   1.920   0.837  0.1577  0.5657 -0.3269
 4072SOL    HW112035   2.713   1.913   0.828  0.0796 -2.9547  0.0945
 4072SOL    HW212036   2.581   1.849   0.900 -2.7795  0.4997 -1.7635
 4073SOL     OW12037   2.998   3.186   1.440 -0.4935 -0.4246 -0.2442
 4073SOL    HW112038   2.899   3.202   1.436 -0.2463  1.3651  0.2447
 4073SOL    HW212039   3.046   3.273   1.448  1.0556 -1.3465  1.1287
 4074SOL     OW12040   0.588   0.137   3.481  0.0094 -0.6311  0.1993
 4074SOL    HW112041   0.529   0.057   3.467  0.8073 -0.9344 -1.7530
 4074SOL    HW212042   0.533   0.213   3.515 -1.3267 -1.2078 -0.5776
 4075SOL     OW12043   0.008   0.862   4.669 -0.7725 -0.2471  0.3704
 4075SOL    HW112044  -0.048   0.864   4.585  0.1170  0.1016 -0.2349
 4075SOL    HW212045  -0.035   0.803   4.737 -2.3675  0.7396  0.2704
 4076SOL     OW12046   0.812   1.493   2.327  0.3479  0.2128  0.3860
 4076SOL    HW112047   0.804   1.588   2.297  0.3631 -0.5080 -2.0513
 4076SOL    HW212048   0.723   1.461   2.358 -0.8031 -0.2738 -3.0819
 4077SOL     OW12049   0.104   3.650   1.346  0.2408 -0.2702 -0.3362
 4077SOL    HW112050   0.027   3.598   1.309  0.3890 -0.8183  0.1102
 4077SOL    HW212051   0.127   3.725   1.284 -0.0483 -0.6705 -0.9337
 4078SOL     OW12052   3.041   3.558   0.256  0.0031  0.8691 -0.6172
 4078SOL    HW112053   2.954   3.537   0.300  0.1485  1.9191  0.2237
 4078SOL    HW212054   3.026   3.626   0.184 -0.1291 -0.3390 -1.7806
 4079SOL     OW12055   1.800   3.062   1.002  0.0720  0.1202 -0.0177
 4079SOL    HW112056   1.752   3.026   1.083  0.6848 -0.4933  0.0820
 4079SOL    HW212057   1.842   3.150   1.025 -0.1583  0.1792  0.1891
 4080SOL     OW12058   0.128   4.418   2.179 -0.1329  0.1506  0.4585
 4080SOL    HW112059   0.157   4.512   2.195  1.8812 -0.5321  1.0901
 4080SOL    HW212060   0.107   4.373   2.266 -0.6938 -0.1209  0.1933
 4081SOL     OW12061   0.670   4.037   4.133  0.3407 -0.2370 -0.0520
 4081SOL    HW112062   0.605   3.961   4.126 -0.9764  0.9795 -2.3875
 4081SOL    HW212063   0.737   4.017   4.204 -1.4515 -2.4035  1.1781
 4082SOL     OW12064   4.035   4.131   1.053  0.2442  0.8454  0.3106
 4082SOL    HW112065   4.131   4.116   1.031  0.1224 -0.7435  0.6904
 4082SOL    HW212066   4.017   4.229   1.064  1.6466  1.2031 -0.4677
 4083SOL     OW12067   2.506   3.011   2.695  0.6223  0.0027  0.0851
 4083SOL    HW112068   2.477   2.940   2.760 -0.0856 -1.6774 -1.9342
 4083SOL    HW212069   2.563   2.969   2.624 -0.3547  1.3008 -1.5292
 4084SOL     OW12070   2.014   2.525   4.412  0.2616 -0.0132  0.0101
 4084SOL    HW112071   2.015   2.489   4.319 -0.1556 -1.0601  0.4000
 4084SOL    HW212072   1.937   2.588   4.424  2.4273  3.1984 -1.4339
 4085SOL     OW12073   2.267   4.355   3.766  0.2329 -0.0168 -0.1704
 4085SOL    HW112074   2.194   4.390   3.707 -0.0827  0.2857  0.3897
 4085SOL    HW212075   2.234   4.273   3.814 -0.0503  0.6239  0.7487
 4086SOL     OW12076   2.462   4.672   2.302  0.3630  0.4529 -0.1255
 4086SOL    HW112077   2.476   4.601   2.233 -0.2019 -0.0202  0.2349
 4086SOL    HW212078   2.408   4.747   2.262  1.7315  1.1171 -0.7715
 4087SOL     OW12079   0.924   0.319   3.147 -0.5876 -0.1483 -0.5835
 4087SOL    HW112080   0.994   0.248   3.151  0.5371  0.9847  0.4603
 4087SOL    HW212081   0.834   0.278   3.166 -0.2171 -1.5833 -1.7918
 4088SOL     OW12082   1.945   1.728   3.648  0.1834 -0.0526 -0.3860
 4088SOL    HW112083   1.969   1.786   3.571  2.3105 -2.1673 -1.4269
 4088SOL    HW212084   1.856   1.686   3.631 -0.5280  1.3936 -0.4514
 4089SOL     OW12085   4.009   3.052   3.353  0.2155 -0.8629 -0.1074
 4089SOL    HW112086   4.041   3.113   3.280  2.7879 -0.2471  1.3868
 4089SOL    HW212087   4.074   3.056   3.429 -2.5524 -1.1423  2.4244
 4090SOL     OW12088   4.985   3.449   0.023 -0.2519  0.5007  0.2606
 4090SOL    HW112089   4.916   3.424   0.091  0.3541 -1.4734  0.2341
 4090SOL    HW212090   5.024   3.538   0.046 -2.4904  1.4905  0.4865
 4091SOL     OW12091   3.742   1.378   2.292 -0.3753  0.0536  0.3115
 4091SOL    HW112092   3.785   1.371   2.203  1.2167 -0.3740  1.0768
 4091SOL    HW212093   3.684   1.298   2.308  0.0600 -0.3258  0.0238
 4092SOL     OW12094   4.072   1.449   0.017 -0.0666  0.1983 -0.2819
 4092SOL    HW112095   3.989   1.456  -0.038 -1.3011 -0.5694  1.3920
 4092SOL    HW212096   4.136   1.385  -0.026 -0.6956  0.1481 -1.1527
 4093SOL     OW12097   0.312   4.701   2.885 -0.2022  0.3832 -0.1513
 4093SOL    HW112098   0.410   4.710   2.866  0.2703  0.5242  2.1209
 4093SOL    HW212099   0.261   4.769   2.833  1.0732  1.3342 -0.1858
 4094SOL     OW12100   1.848   0.214   1.349  0.4172  0.1925  0.2617
 4094SOL    HW112101   1.837   0.281   1.275 -0.8056 -0.0495  0.2073
 4094SOL    HW212102   1.762   0.205   1.399  0.2007 -2.1906 -0.4400
 4095SOL     OW12103   2.123   2.222   3.095  0.1168  0.6543 -0.2620
 4095SOL    HW112104   2.220   2.245   3.082  0.3893 -0.4085 -0.1780
 4095SOL    HW212105   2.088   2.175   3.014  0.3024 -0.9884  0.5752
 4096SOL     OW12106   4.146   1.025   4.397 -0.2930  0.2731  0.6871
 4096SOL    HW112107   4.237   1.067   4.401 -0.7123  1.2661 -0.0345
 4096SOL    HW212108   4.153   0.936   4.353 -0.0236  1.3981 -1.6827
 4097SOL     OW12109   0.613   4.194   1.693 -0.4958  0.2158  0.0511
 4097SOL    HW112110   0.619   4.123   1.763  1.4774  0.0432 -0.2143
 4097SOL    HW212111   0.558   4.161   1.617  0.4221 -1.0771 -0.0860
 4098SOL     OW12112   3.269   2.221   2.098 -0.0460  0.1465  0.4216
 4098SOL    HW112113   3.177   2.259   2.091 -0.5273 -0.8414  1.0463
 4098SOL    HW212114   3.264   2.129   2.139  1.3052  0.4788  1.4157
 4099SOL     OW12115   2.136   4.802   3.376 -0.4444  0.0287  0.1509
 4099SOL    HW112116   2.069   4.747   3.327  0.0923 -1.0670  0.6168
 4099SOL    HW212117   2.181   4.864   3.312 -2.3329  1.2673 -0.0638
 4100SOL     OW12118   3.482   2.483   1.070 -0.2091 -0.1237 -0.5103
 4100SOL    HW112119   3.396   2.533   1.061  0.8031  1.4834 -1.8441
 4100SOL    HW212120   3.504   2.472   1.167 -0.5098  2.0514 -0.1320
 4101SOL     OW12121   4.175   2.330   2.879  0.1288  0.0295 -0.2405
 4101SOL    HW112122   4.077   2.315   2.865  0.0688  1.7300 -2.1753
 4101SOL    HW212123   4.224   2.304   2.795  1.2743 -0.2573  0.5053
 4102SOL     OW12124   0.739   3.229   1.554 -0.2755  0.2754 -0.0246
 4102SOL    HW112125   0.693   3.185   1.632  0.4031 -0.7921 -0.1993
 4102SOL    HW212126   0.672   3.253   1.485 -0.7083 -0.2298  0.2123
 4103SOL     OW12127   2.693   0.027   1.784 -0.1882  0.5638 -0.1780
 4103SOL    HW112128   2.720   0.078   1.866  2.6720 -0.6290 -0.2425
 4103SOL    HW212129   2.717   0.080   1.702  2.1289 -0.4478 -0.2339
 4104SOL     OW12130   0.568   0.796   2.043 -0.4385  0.3699 -0.3230
 4104SOL    HW112131   0.534   0.862   1.976 -0.4470  0.9269  0.2226
 4104SOL    HW212132   0.665   0.780   2.028 -0.2671  1.0669 -0.0090
 4105SOL     OW12133   1.944   0.949   3.387  0.0966 -0.1668  0.4199
 4105SOL    HW112134   2.021   0.992   3.434  0.3879  1.3151 -1.2718
 4105SOL    HW212135   1.858   0.988   3.421  0.3007  0.8458 -0.1776
 4106SOL     OW12136   0.229   2.442   2.979 -0.4284  0.1022  0.2199
 4106SOL    HW112137   0.160   2.393   3.032  0.9502 -2.9096 -0.5131
 4106SOL    HW212138   0.212   2.428   2.881  0.6522  0.0984  0.0184
 4107SOL     OW12139   3.998   3.971   4.985  0.5428 -0.2574  0.4718
 4107SOL    HW112140   4.008   3.966   4.885 -1.0164 -0.5363  0.2951
 4107SOL    HW212141   4.000   4.067   5.014 -1.1667  0.0073 -0.1355
 4108SOL     OW12142   2.874   4.445   0.253  0.0232 -0.0947 -0.1717
 4108SOL    HW112143   2.954   4.433   0.312  0.2592  0.8467 -0.2837
 4108SOL    HW212144   2.813   4.513   0.293 -0.2051 -0.0364 -0.6144
 4109SOL     OW12145   4.233   4.693   1.081 -0.4667  0.5512 -0.3674
 4109SOL    HW112146   4.266   4.771   1.028  1.1591 -0.3868 -0.8133
 4109SOL    HW212147   4.306   4.662   1.142 -1.1741 -0.4598 -0.0167
 4110SOL     OW12148   1.553   0.626   2.653 -0.3702 -0.4275 -0.0909
 4110SOL    HW112149   1.519   0.533   2.663  0.1378 -0.5514  0.6253
 4110SOL    HW212150   1.494   0.689   2.704  0.2305 -0.5932  0.8396
 4111SOL     OW12151   2.354   1.813   0.060 -0.5191 -0.1266 -0.3192
 4111SOL    HW112152   2.339   1.793   0.157 -2.3727 -1.0344 -0.7595
 4111SOL    HW212153   2.306   1.746   0.004 -1.3371  1.6772 -1.8867
 4112SOL     OW12154   1.321   4.336   1.077  0.1546 -0.2602 -0.4313
 4112SOL    HW112155   1.397   4.271   1.084 -1.2818 -1.8362  1.6573
 4112SOL    HW212156   1.243   4.291   1.033 -0.9674 -0.0732  1.3026
 4113SOL     OW12157   4.339   4.661   3.234  0.4607 -0.1964 -0.9329
 4113SOL    HW112158   4.348   4.723   3.312 -1.4362 -0.8596 -0.1501
 4113SOL    HW212159   4.374   4.707   3.152  0.6014  1.2851 -0.0884
 4114SOL     OW12160   3.994   3.610   4.804  0.7235 -0.1704 -0.1440
 4114SOL    HW112161   3.951   3.520   4.813  1.0912 -0.4332 -0.9350
 4114SOL    HW212162   4.088   3.599   4.773  0.3559  0.5317 -1.6203
 4115SOL     OW12163   1.981   1.418   4.202 -0.7479  0.0062  0.4006
 4115SOL    HW112164   2.028   1.505   4.215  0.6213 -0.6388 -0.0216
 4115SOL    HW212165   2.048   1.344   4.194 -1.8846 -1.2908  1.9879
 4116SOL     OW12166   1.996   0.017   4.363  0.4119 -0.1160 -0.2841
 4116SOL    HW112167   1.931  -0.053   4.332  0.7449 -0.5696  0.0296
 4116SOL    HW212168   2.059  -0.024   4.429  3.5987 -0.7892 -3.4785
 4117SOL     OW12169   1.475   4.019   0.536  0.2928 -0.2561  0.8307
 4117SOL    HW112170   1.436   3.939   0.582 -0.8078  0.3712  1.0189
 4117SOL    HW212171   1.500   4.088   0.605 -1.9305  0.9462  0.5238
 4118SOL     OW12172   4.016   0.516   4.993  0.2044  0.4508  0.5542
 4118SOL    HW112173   3.967   0.587   5.043 -1.7226 -0.6609  0.3534
 4118SOL    HW212174   4.050   0.447   5.057 -2.2874 -0.9880  0.4343
 4119SOL     OW12175   4.576   2.947   1.293  0.4235  0.6388 -0.0453
 4119SOL    HW112176   4.572   2.894   1.378  0.9444  0.3181 -0.2216
 4119SOL    HW212177   4.647   2.911   1.234 -0.8124  0.0204 -1.2002
 4120SOL     OW12178   2.737   4.224   4.585  0.2454 -0.2696 -0.5132
 4120SOL    HW112179   2.645   4.260   4.566 -0.0581 -0.2886  0.8055
 4120SOL    HW212180   2.766   4.255   4.676  0.1976 -2.8533  0.4834
 4121SOL     OW12181   4.584   1.792   0.961 -0.3948 -0.3117  0.0060
 4121SOL    HW112182   4.601   1.871   1.020  1.2253 -0.8879  0.3809
 4121SOL    HW212183   4.652   1.721   0.981  0.0024 -0.6578 -2.3113
 4122SOL     OW12184   4.931   4.760   4.945  0.0355 -0.0243 -0.0669
 4122SOL    HW112185   4.888   4.691   5.004 -0.9282 -0.1353 -0.8638
 4122SOL    HW212186   4.925   4.730   4.850 -2.0386  1.9169 -0.6434
 4123SOL     OW12187   1.139   5.006   0.994 -0.5466 -0.2436 -0.2066
 4123SOL    HW112188   1.071   5.028   1.065  0.3512 -0.4325  0.7430
 4123SOL    HW212189   1.148   4.907   0.987  0.1637 -0.2188  0.2187
 4124SOL     OW12190   1.986   2.752   5.023  0.1307 -0.0803 -0.0108
 4124SOL    HW112191   1.911   2.803   5.067 -0.7736 -1.7529  0.4672
 4124SOL    HW212192   2.032   2.696   5.092  0.5027 -0.6179 -0.6968
 4125SOL     OW12193   1.014   4.963   2.325 -0.4831  0.0409 -0.3339
 4125SOL    HW112194   0.929   5.000   2.289 -0.7299  0.1218  0.3251
 4125SOL    HW212195   1.059   4.908   2.254 -0.6440  0.7107 -0.9696
 4126SOL     OW12196   0.287   2.086   4.104 -0.6269 -0.3435  0.9084
 4126SOL    HW112197   0.374   2.050   4.072 -0.0970 -1.0598  2.9812
 4126SOL    HW212198   0.231   2.010   4.139 -2.4976 -0.0317 -1.1552
 4127SOL     OW12199   1.955   2.065   4.613  0.3739 -0.0621  0.4361
 4127SOL    HW112200   1.992   2.064   4.706  1.5193 -1.3970  0.0016
 4127SOL    HW212201   1.855   2.061   4.617  0.4347 -1.0558  1.6084
 4128SOL     OW12202   3.393   2.348   3.771 -0.3463 -0.3334  0.2975
 4128SOL    HW112203   3.416   2.436   3.730 -0.3109 -1.0127 -1.2077
 4128SOL    HW212204   3.324   2.302   3.715 -2.6935  0.0040  2.6471
 4129SOL     OW12205   0.696   4.760   1.550 -0.2372  0.3987  0.2271
 4129SOL    HW112206   0.596   4.754   1.560 -0.1614 -2.5519  0.0568
 4129SOL    HW212207   0.720   4.749   1.454  0.3390 -4.8630  0.6984
 4130SOL     OW12208   4.170   1.613   4.582 -0.0998 -0.2012  0.0610
 4130SOL    HW112209   4.094   1.653   4.634  1.2097  0.7286  1.3391
 4130SOL    HW212210   4.178   1.516   4.604 -1.8990 -0.7219 -1.3360
 4131SOL     OW12211   2.957   2.832   1.844  0.0933 -0.0194  0.1570
 4131SOL    HW112212   2.926   2.766   1.776 -2.5497  1.6548 -0.4003
 4131SOL    HW212213   2.956   2.924   1.805 -0.4007  0.8526  2.0930
 4132SOL     OW12214   0.750   4.445   1.131  0.1940  0.0138 -0.8764
 4132SOL    HW112215   0.813   4.389   1.078 -0.2457  0.0330 -1.4380
 4132SOL    HW212216   0.690   4.495   1.068 -0.3075  0.0744 -0.3572
 4133SOL     OW12217   1.220   1.749   3.904  0.5059 -0.1072  0.1407
 4133SOL    HW112218   1.200   1.675   3.969  1.1138 -0.8707 -0.5284
 4133SOL    HW212219   1.288   1.811   3.944 -0.3440  0.3727  0.8911
 4134SOL     OW12220   0.695   2.414   2.186 -0.5803  0.2702  0.3366
 4134SOL    HW112221   0.602   2.377   2.183 -0.0304 -1.1545 -0.2346
 4134SOL    HW212222   0.706   2.483   2.115 -0.8003 -0.6101 -0.5788
 4135SOL     OW12223   3.481   4.355   4.445 -0.1398 -0.1206  0.2574
 4135SOL    HW112224   3.446   4.304   4.523 -1.1810 -0.7359 -0.5775
 4135SOL    HW212225   3.461   4.453   4.458  0.6172 -0.0774  1.2135
 4136SOL     OW12226   2.544   3.200   3.745 -0.4532 -0.2446  0.4191
 4136SOL    HW112227   2.596   3.262   3.804  0.8131  0.1875 -1.0667
 4136SOL    HW212228   2.449   3.197   3.776 -0.1483  1.0364  1.6233
 4137SOL     OW12229   3.986   2.346   1.158 -0.2397  0.0248 -0.2930
 4137SOL    HW112230   4.007   2.393   1.244  0.2623  0.8743 -0.8632
 4137SOL    HW212231   4.050   2.377   1.087 -0.1504 -1.2295 -0.7916
 4138SOL     OW12232   4.160   2.471   0.641 -0.2069  0.2157 -0.7279
 4138SOL    HW112233   4.106   2.396   0.678  0.7912 -1.0629 -1.7626
 4138SOL    HW212234   4.229   2.498   0.708 -0.2432 -0.1426 -0.5455
 4139SOL     OW12235   4.276   0.389   3.329  0.0988  0.0869 -0.0366
 4139SOL    HW112236   4.212   0.319   3.298  1.3130 -2.5860  2.9042
 4139SOL    HW212237   4.246   0.427   3.416  0.9966  1.0116 -0.1027
 4140SOL     OW12238   0.697   0.510   3.000  0.0381 -0.5825 -0.4780
 4140SOL    HW112239   0.724   0.600   3.033  1.3668 -1.4350  0.9036
 4140SOL    HW212240   0.766   0.475   2.937  0.8459 -1.6367  0.9342
 4141SOL     OW12241   0.477   1.322   1.183 -0.3019 -0.2747  0.2737
 4141SOL    HW112242   0.456   1.398   1.122 -0.3549  0.2504  0.9268
 4141SOL    HW212243   0.542   1.353   1.253  1.9192 -1.5736 -1.0936
 4142SOL     OW12244   1.700   1.208   1.739  0.2394  0.4924 -0.3129
 4142SOL    HW112245   1.724   1.119   1.702  0.6528  0.5476 -0.1905
 4142SOL    HW212246   1.633   1.198   1.812  0.0525  0.3097 -0.5114
 4143SOL     OW12247   3.072   1.541   1.948 -0.2319 -0.7397  0.6155
 4143SOL    HW112248   3.096   1.474   2.018 -0.2274 -1.4805 -0.0781
 4143SOL    HW212249   3.002   1.502   1.888  0.6909 -0.6154 -0.5742
 4144SOL     OW12250   3.430   1.914   4.536 -0.4203 -0.1311  0.7826
 4144SOL    HW112251   3.497   1.934   4.465 -0.1066 -1.1880  0.7776
 4144SOL    HW212252   3.363   1.989   4.539  0.8198  1.0168  0.8969
 4145SOL     OW12253   1.186   2.688   1.432 -0.3820 -0.1848 -0.3462
 4145SOL    HW112254   1.259   2.715   1.495  0.6624 -0.5382 -1.3837
 4145SOL    HW212255   1.145   2.770   1.391  0.1834 -0.0234 -0.5961
 4146SOL     OW12256   3.649   2.027   2.115  0.3655  0.0987 -0.0532
 4146SOL    HW112257   3.692   2.010   2.026  0.6333 -0.1873  0.1277
 4146SOL    HW212258   3.576   1.961   2.130 -1.9882  2.1811 -1.5231
 4147SOL     OW12259   2.737   1.739   2.431 -0.0798 -0.3177 -0.4351
 4147SOL    HW112260   2.708   1.815   2.373 -0.3252 -0.7246 -0.8496
 4147SOL    HW212261   2.762   1.774   2.522  1.0590  0.4289 -1.0179
 4148SOL     OW12262   1.639   1.672   3.938 -0.1410 -0.1912  0.2302
 4148SOL    HW112263   1.630   1.586   3.989  1.6207  0.8992  2.5833
 4148SOL    HW212264   1.582   1.742   3.981  1.9757  0.9594  1.3014
 4149SOL     OW12265   3.385   1.723   3.404 -0.3491  0.1561  0.1384
 4149SOL    HW112266   3.294   1.733   3.363 -1.2392  0.7079  2.1329
 4149SOL    HW212267   3.447   1.791   3.365 -0.8506 -0.0125 -1.0006
 4150SOL     OW12268   1.297   3.042   1.396  0.3825 -0.5154  0.6220
 4150SOL    HW112269   1.317   3.105   1.471  0.8614  0.4398 -0.2847
 4150SOL    HW212270   1.352   3.066   1.316 -0.3799 -1.2849 -0.1629
 4151SOL     OW12271   4.368   4.952   5.026 -0.5291 -0.1246 -0.4045
 4151SOL    HW112272   4.310   4.875   5.052 -1.0885  0.3591 -0.1842
 4151SOL    HW212273   4.423   4.980   5.105  0.4789 -0.9747 -0.7821
 4152SOL     OW12274   2.804   0.864   0.380  0.2159 -0.5107  0.1658
 4152SOL    HW112275   2.849   0.778   0.355  0.5267 -0.3124  0.0331
 4152SOL    HW212276   2.870   0.923   0.427  0.1427 -0.1467 -0.1861
 4153SOL     OW12277   4.771   2.192   2.146 -0.2173  0.2873  0.7605
 4153SOL    HW112278   4.697   2.259   2.143  1.0028  1.6771  0.6721
 4153SOL    HW212279   4.769   2.136   2.063  0.0098  1.6560 -0.2090
 4154SOL     OW12280   0.435   0.731   4.730 -0.0008 -0.6911  0.7108
 4154SOL    HW112281   0.506   0.780   4.680  2.4602 -0.1088  4.3800
 4154SOL    HW212282   0.365   0.795   4.761 -1.6525 -1.0853 -1.8976
 4155SOL     OW12283   0.061   2.693   2.696  0.0218  0.5829  0.1702
 4155SOL    HW112284   0.123   2.768   2.720  2.3385 -0.4220 -2.1693
 4155SOL    HW212285   0.032   2.703   2.601  0.1795 -1.3136 -0.1155
 4156SOL     OW12286   1.901   2.296   1.834  0.3276 -0.4137  0.0344
 4156SOL    HW112287   1.930   2.200   1.829  1.3133 -0.1479  0.6122
 4156SOL    HW212288   1.854   2.320   1.749  0.5426 -1.2523 -0.3367
 4157SOL     OW12289   2.814   0.515   2.137 -0.2631  0.4029 -0.2222
 4157SOL    HW112290   2.769   0.426   2.125 -1.4037  1.1634 -2.0299
 4157SOL    HW212291   2.829   0.557   2.048 -0.2271  2.2542  0.6105
 4158SOL     OW12292   2.585   2.237   4.053 -1.1324 -0.1329 -0.6270
 4158SOL    HW112293   2.585   2.329   4.091 -1.3337 -0.1659 -0.5455
 4158SOL    HW212294   2.616   2.240   3.958  0.2784 -0.1648 -0.1917
 4159SOL     OW12295   4.722   0.200   1.447  0.6391  0.6236 -0.0349
 4159SOL    HW112296   4.659   0.124   1.436 -0.3835  1.0494  2.2505
 4159SOL    HW212297   4.815   0.165   1.462  0.5174 -0.0824 -0.8480
 4160SOL     OW12298   0.200   4.178   1.272  0.2705 -0.0900 -0.4009
 4160SOL    HW112299   0.264   4.206   1.344 -0.0751 -1.4135  0.4708
 4160SOL    HW212300   0.126   4.124   1.313  0.3323 -1.3167 -1.8111
 4161SOL     OW12301   4.581   4.325   3.003  0.0470  0.4758 -0.0974
 4161SOL    HW112302   4.646   4.401   3.004  1.5171 -0.6906  2.7648
 4161SOL    HW212303   4.513   4.340   3.075  0.9905 -1.3529  1.2419
 4162SOL     OW12304   2.490   4.348   3.024  0.2498  0.5612  0.7235
 4162SOL    HW112305   2.549   4.382   2.952  0.6773  2.3462  1.8803
 4162SOL    HW212306   2.545   4.319   3.102 -0.2837 -0.0202  0.8923
 4163SOL     OW12307   2.349   0.639   4.963  0.8819  0.1998 -0.4065
 4163SOL    HW112308   2.333   0.541   4.952 -0.6145  0.3028  0.6925
 4163SOL    HW212309   2.406   0.656   5.044 -0.7260  0.3441  0.7297
 4164SOL     OW12310   3.021   4.775   4.216  0.0764 -0.2175 -0.4812
 4164SOL    HW112311   2.975   4.829   4.146  1.0677  0.1392 -0.8814
 4164SOL    HW212312   3.037   4.682   4.182 -1.3652 -0.7063  0.0974
 4165SOL     OW12313   3.285   3.779   4.782  0.5450  0.4475 -0.0012
 4165SOL    HW112314   3.210   3.786   4.717  0.8882  0.6297 -0.3803
 4165SOL    HW212315   3.319   3.871   4.804 -0.0572  0.4434  1.0152
 4166SOL     OW12316   3.297   2.019   0.428  0.4468  0.0882 -0.1191
 4166SOL    HW112317   3.235   1.992   0.501  2.9219 -5.4139  0.3927
 4166SOL    HW212318   3.279   1.964   0.347  1.7442  1.6871 -1.5857
 4167SOL     OW12319   2.182   0.069   2.689 -0.2566  0.0126 -0.2591
 4167SOL    HW112320   2.121  -0.010   2.683  3.4846 -3.1453 -0.2887
 4167SOL    HW212321   2.230   0.068   2.776  2.3273  0.2356 -1.6060
 4168SOL     OW12322   2.469   3.210   4.697  0.5392 -0.1247  0.4839
 4168SOL    HW112323   2.441   3.239   4.788 -0.3136  1.3252 -0.1970
 4168SOL    HW212324   2.567   3.192   4.696  1.0716  2.4355  1.0792
 4169SOL     OW12325   1.114   0.224   3.829  0.5569  0.2297  0.3174
 4169SOL    HW112326   1.128   0.173   3.914  1.4424  2.5649  1.6594
 4169SOL    HW212327   1.187   0.292   3.818  0.1119  0.4103 -2.0162
 4170SOL     OW12328   3.093   0.852   0.906 -0.1135  0.3190  0.2080
 4170SOL    HW112329   3.072   0.779   0.971 -1.4988  0.7010  0.2067
 4170SOL    HW212330   3.180   0.894   0.932  0.3356 -0.8297  0.6392
 4171SOL     OW12331   3.227   3.127   1.743  0.2010  0.0045 -0.0326
 4171SOL    HW112332   3.262   3.035   1.762 -0.0164 -0.4173 -1.5313
 4171SOL    HW212333   3.283   3.169   1.671 -1.4917 -0.1569 -1.5098
 4172SOL     OW12334   0.312   0.445   2.591  0.2066  0.2544 -0.0604
 4172SOL    HW112335   0.314   0.349   2.619 -0.2516  0.0347 -0.7357
 4172SOL    HW212336   0.364   0.455   2.505 -0.8465  0.3540 -0.7033
 4173SOL     OW12337   0.640   2.851   3.703 -0.4797  0.0839  0.2125
 4173SOL    HW112338   0.670   2.929   3.650 -1.1084  1.8153  2.2645
 4173SOL    HW212339   0.577   2.795   3.648  2.8580 -1.2544 -2.6295
 4174SOL     OW12340   4.643   0.737   3.857 -0.4897 -0.5476 -0.4646
 4174SOL    HW112341   4.650   0.770   3.952 -0.0658 -2.3118  0.1546
 4174SOL    HW212342   4.549   0.709   3.838 -0.8098  0.7928 -0.9316
 4175SOL     OW12343   0.675   2.605   1.967  0.3587  0.2220 -0.6425
 4175SOL    HW112344   0.584   2.637   1.993  0.2773  0.1230 -0.7997
 4175SOL    HW212345   0.729   2.682   1.935  0.0214  0.1462 -1.4228
 4176SOL     OW12346   3.303   2.812   4.590  0.1083 -0.1644  0.6046
 4176SOL    HW112347   3.246   2.892   4.572 -0.3588 -0.2727  1.5226
 4176SOL    HW212348   3.366   2.797   4.514  1.7621  2.3755  1.3673
 4177SOL     OW12349   3.423   1.050   3.383 -0.3927 -0.9198  0.0060
 4177SOL    HW112350   3.411   1.093   3.473  3.2843 -0.0238  0.2058
 4177SOL    HW212351   3.380   1.107   3.313  0.2358  0.5669  0.7930
 4178SOL     OW12352   1.104   4.590   4.423 -0.1108 -0.2565  0.4057
 4178SOL    HW112353   1.062   4.600   4.513 -0.8147  1.1067 -0.0436
 4178SOL    HW212354   1.042   4.625   4.353  0.5338 -1.0512 -0.5876
 4179SOL     OW12355   3.634   3.888   0.929  0.7416 -0.2785 -0.0579
 4179SOL    HW112356   3.578   3.808   0.950  0.1386  0.4023  1.0287
 4179SOL    HW212357   3.596   3.968   0.975  2.0469  0.3901 -0.0996
 4180SOL     OW12358   1.230   3.196   3.494  0.8443 -0.1162 -0.5942
 4180SOL    HW112359   1.197   3.226   3.584 -0.3357 -1.7620 -0.4374
 4180SOL    HW212360   1.286   3.114   3.504 -0.8896 -1.4847 -1.4530
 4181SOL     OW12361   0.509   4.025   3.015 -0.1997 -0.3022 -0.0398
 4181SOL    HW112362   0.568   4.099   3.048  0.5237 -1.0329  0.3451
 4181SOL    HW212363   0.416   4.060   3.002 -0.3056  0.2422  1.8940
 4182SOL     OW12364   0.411   4.762   1.631  0.0562  0.0917 -0.5623
 4182SOL    HW112365   0.436   4.846   1.678  0.7548 -0.6203  0.4056
 4182SOL    HW212366   0.358   4.783   1.549  0.5456  1.4801 -0.5484
 4183SOL     OW12367   0.601   2.951   4.662 -0.0663  0.2337  0.2722
 4183SOL    HW112368   0.561   3.038   4.633  1.1147  0.7023  0.0002
 4183SOL    HW212369   0.580   2.880   4.595 -0.2488  0.5255  0.0204
 4184SOL     OW12370   1.412   2.874   1.054  0.0992 -0.3803 -0.0823
 4184SOL    HW112371   1.363   2.800   1.007 -0.5452 -0.8349  1.2710
 4184SOL    HW212372   1.401   2.959   1.002 -0.1951 -0.9678 -0.9971
 4185SOL     OW12373   4.506   1.687   2.853 -0.1112  0.2982  0.3415
 4185SOL    HW112374   4.453   1.766   2.820 -1.5630 -0.7355  0.0930
 4185SOL    HW212375   4.467   1.654   2.939 -0.7459 -1.2738 -0.4951
 4186SOL     OW12376   0.907   4.689   4.257  0.0097  0.0355  0.8528
 4186SOL    HW112377   0.929   4.784   4.234  0.8568 -0.3311  0.0516
 4186SOL    HW212378   0.842   4.687   4.333  2.4722  1.2230  3.1671
 4187SOL     OW12379   4.058   3.936   2.217  0.0347  0.5119  0.7320
 4187SOL    HW112380   3.972   3.945   2.267 -0.1545  1.3328  0.2894
 4187SOL    HW212381   4.063   4.008   2.147  0.3304 -0.5301 -0.3579
 4188SOL     OW12382   3.719   3.527   0.195  0.3989  0.0592 -0.0280
 4188SOL    HW112383   3.696   3.601   0.259 -0.1609 -0.8039  0.8014
 4188SOL    HW212384   3.639   3.469   0.181  0.0040  1.1066 -2.7970
 4189SOL     OW12385   3.905   4.015   1.258 -0.2911 -0.7452  0.0362
 4189SOL    HW112386   3.808   4.025   1.237 -0.1936 -0.4404 -0.3000
 4189SOL    HW212387   3.959   4.040   1.177  0.0622 -1.0375  0.1778
 4190SOL     OW12388   1.790   2.381   0.519  0.5871  0.2082 -0.4987
 4190SOL    HW112389   1.832   2.317   0.455  1.8815  1.6554 -1.1771
 4190SOL    HW212390   1.803   2.347   0.613  0.9981 -0.6554 -0.8547
 4191SOL     OW12391   4.732   4.120   0.641 -0.1926  0.4290 -0.0043
 4191SOL    HW112392   4.772   4.040   0.595  0.9862  0.5648  0.7299
 4191SOL    HW212393   4.783   4.202   0.616 -1.3442  0.9542 -0.6815
 4192SOL     OW12394   3.501   5.014   4.728 -0.0734  0.6562  0.1437
 4192SOL    HW112395   3.533   4.972   4.644 -1.0821 -1.5696  0.7714
 4192SOL    HW212396   3.422   5.073   4.709 -0.5621 -0.1712 -0.4429
 4193SOL     OW12397   0.071   4.175   4.567  0.4035 -0.2129 -0.1957
 4193SOL    HW112398   0.058   4.251   4.502 -2.1741 -1.2104 -0.9777
 4193SOL    HW212399  -0.015   4.156   4.613  1.8589 -0.4119  2.6525
 4194SOL     OW12400   1.968   1.275   4.458  0.0028  0.1958  0.4676
 4194SOL    HW112401   1.976   1.346   4.528  0.1529  1.2904 -0.6232
 4194SOL    HW212402   1.962   1.318   4.368 -2.0116 -1.0864 -0.0838
 4195SOL     OW12403   3.235   2.689   3.688  0.2875 -0.1875  0.4173
 4195SOL    HW112404   3.257   2.768   3.631 -1.4459 -1.1019 -1.6784
 4195SOL    HW212405   3.319   2.648   3.723  1.3360  1.2487 -0.3379
 4196SOL     OW12406   2.646   3.088   2.353  0.1786  0.1965  0.1017
 4196SOL    HW112407   2.674   3.097   2.257 -0.0743 -0.3295 -0.0219
 4196SOL    HW212408   2.591   3.168   2.378 -2.0574 -0.9226 -1.0034
 4197SOL     OW12409   4.062   4.086   4.204  0.1624  0.4847 -0.1016
 4197SOL    HW112410   4.140   4.025   4.222 -0.3632  0.1496  1.0974
 4197SOL    HW212411   3.993   4.036   4.151  0.9804  0.9573 -1.6790
 4198SOL     OW12412   4.875   3.377   3.846  0.1188 -0.2232 -0.2829
 4198SOL    HW112413   4.919   3.393   3.758  0.0869  0.7904 -0.1276
 4198SOL    HW212414   4.862   3.279   3.859  1.0254 -0.4502 -0.9592
 4199SOL     OW12415   2.203   2.981   0.222 -0.2530  0.0582  0.3441
 4199SOL    HW112416   2.170   2.901   0.271  1.5399 -0.6321  0.4984
 4199SOL    HW212417   2.251   3.042   0.286  1.2344 -0.3648 -0.3365
 4200SOL     OW12418   4.652   4.395   1.313  0.1688  0.9997 -0.1144
 4200SOL    HW112419   4.725   4.464   1.314  1.4784 -0.3022 -0.6236
 4200SOL    HW212420   4.672   4.328   1.241 -0.0332 -0.9332  1.5534
 4201SOL     OW12421   0.362   3.730   3.900  0.0311 -0.5297  0.1188
 4201SOL    HW112422   0.262   3.726   3.896  0.0718 -0.3967 -1.9807
 4201SOL    HW212423   0.401   3.653   3.850  0.9730  0.0034  0.0066
 4202SOL     OW12424   4.587   0.535   3.528  0.5037 -0.0498 -0.7071
 4202SOL    HW112425   4.578   0.469   3.603 -0.1175  0.5668 -0.2170
 4202SOL    HW212426   4.613   0.488   3.444  0.4385 -0.8607 -0.2801
 4203SOL     OW12427   3.909   2.535   0.147  0.8552 -0.1900 -0.2103
 4203SOL    HW112428   3.924   2.628   0.114  1.7931 -0.2382  0.0624
 4203SOL    HW212429   3.907   2.535   0.247  1.2966 -0.5299 -0.2015
 4204SOL     OW12430   1.414   3.793   2.257  0.0372 -0.2387 -0.1696
 4204SOL    HW112431   1.486   3.857   2.230  0.8979  0.1741  2.7811
 4204SOL    HW212432   1.333   3.844   2.284  0.0284 -0.4709  0.2556
 4205SOL     OW12433   0.488   4.254   3.367 -0.4815  0.3810  0.8073
 4205SOL    HW112434   0.538   4.268   3.281  2.4888  1.7968  2.6185
 4205SOL    HW212435   0.484   4.157   3.389 -1.3248 -0.0090 -0.8719
 4206SOL     OW12436   3.831   4.030   2.338 -0.2256 -0.5540  0.1262
 4206SOL    HW112437   3.764   3.958   2.359 -2.7129  1.6328  0.1502
 4206SOL    HW212438   3.838   4.092   2.415 -0.2577  0.7713 -0.9026
 4207SOL     OW12439   0.088   3.753   3.863 -0.2088 -0.2123 -0.3988
 4207SOL    HW112440   0.076   3.804   3.949 -0.6484 -1.1866  0.1320
 4207SOL    HW212441   0.002   3.755   3.811  0.6584  2.2589 -1.9184
 4208SOL     OW12442   1.577   1.984   3.257  0.1630 -0.3841 -0.0673
 4208SOL    HW112443   1.584   2.015   3.163 -0.1888  0.9701  0.3336
 4208SOL    HW212444   1.606   1.888   3.263  1.4035 -0.1144 -1.3296
 4209SOL     OW12445   4.216   0.492   2.022 -0.2263  0.3009 -0.1493
 4209SOL    HW112446   4.143   0.482   2.090 -0.1833 -0.7439 -0.2408
 4209SOL    HW212447   4.176   0.514   1.933 -0.4324 -0.1256 -0.1671
 4210SOL     OW12448   3.072   4.260   4.165 -0.1153 -0.2631 -0.0700
 4210SOL    HW112449   3.154   4.226   4.119 -0.6812 -1.1503 -0.4511
 4210SOL    HW212450   3.073   4.229   4.260 -1.5401 -3.1372 -0.8650
 4211SOL     OW12451   3.721   4.974   1.472  0.3794 -0.1733  0.0062
 4211SOL    HW112452   3.699   4.876   1.472 -1.2433  0.1399 -1.4247
 4211SOL    HW212453   3.764   4.998   1.559 -1.6382 -1.6511  1.5396
 4212SOL     OW12454   2.965   4.974   2.683  0.5608  0.2939  0.2148
 4212SOL    HW112455   2.978   4.930   2.772  0.3362 -0.0600  0.0740
 4212SOL    HW212456   2.883   4.938   2.639  2.4614 -2.1587 -1.6715
 4213SOL     OW12457   4.427   1.809   3.325  0.0776  0.0291 -0.0372
 4213SOL    HW112458   4.523   1.836   3.330 -0.3410  1.5097  0.6999
 4213SOL    HW212459   4.416   1.737   3.257  1.8588 -0.9485  0.6402
 4214SOL     OW12460   3.596   3.869   2.317  0.1057 -0.1660 -0.0304
 4214SOL    HW112461   3.547   3.956   2.316 -2.0813 -1.3303  0.2657
 4214SOL    HW212462   3.554   3.808   2.384  1.9200 -1.3063  0.1428
 4215SOL     OW12463   0.140   4.737   3.930 -0.1197 -0.2713 -0.5075
 4215SOL    HW112464   0.225   4.722   3.880  0.2097 -0.6015  0.1474
 4215SOL    HW212465   0.150   4.815   3.992 -0.8172  0.7103 -1.5903
 4216SOL     OW12466   3.438   0.383   2.888  0.1745 -0.0415 -0.3222
 4216SOL    HW112467   3.431   0.315   2.962 -0.8153 -0.3163 -0.6469
 4216SOL    HW212468   3.511   0.448   2.909  0.7987 -0.9018  0.2466
 4217SOL     OW12469   2.042   0.236   3.294  0.0444 -0.5574 -0.0029
 4217SOL    HW112470   1.964   0.239   3.231  0.1924  2.2155 -0.1611
 4217SOL    HW212471   2.033   0.156   3.354 -1.6374 -1.6304 -1.5755
 4218SOL     OW12472   2.022   1.442   2.099  0.3223 -0.3423  0.1509
 4218SOL    HW112473   2.092   1.402   2.039  0.1420  0.6948 -0.7826
 4218SOL    HW212474   1.934   1.444   2.052  0.3406  1.1844  0.1242
 4219SOL     OW12475   4.112   0.540   2.937  0.2400  0.3737  0.0228
 4219SOL    HW112476   4.038   0.485   2.898 -1.5580  2.7846 -0.1797
 4219SOL    HW212477   4.089   0.564   3.031  0.0778  2.1743 -0.4302
 4220SOL     OW12478   4.316   2.909   2.180 -0.4305 -0.4053  0.2370
 4220SOL    HW112479   4.277   2.819   2.203  1.9972 -1.7387 -0.5208
 4220SOL    HW212480   4.319   2.966   2.261 -0.2358 -1.7385  1.2016
 4221SOL     OW12481   0.107   2.938   4.000 -0.1060 -0.5056  0.0003
 4221SOL    HW112482   0.190   2.976   3.959  0.8928 -1.5017  1.0071
 4221SOL    HW212483   0.116   2.838   4.006 -0.7036 -0.4948  1.5477
 4222SOL     OW12484   0.749   1.713   1.160  0.4285  0.0967 -0.3662
 4222SOL    HW112485   0.843   1.728   1.190  0.7518 -0.5780 -1.0050
 4222SOL    HW212486   0.687   1.766   1.217  1.2240  0.8553 -0.1859
 4223SOL     OW12487   0.080   3.146   4.178  0.2139  0.2372 -0.6030
 4223SOL    HW112488   0.082   3.062   4.125 -1.5891 -0.1370 -0.1428
 4223SOL    HW212489   0.002   3.202   4.151 -1.1854 -0.2707  2.0019
 4224SOL     OW12490   4.040   0.519   4.013 -0.4646  0.0232  0.0413
 4224SOL    HW112491   3.945   0.532   4.043 -0.1561 -0.0020  1.0343
 4224SOL    HW212492   4.067   0.596   3.955 -0.8283  0.4344  0.4096
 4225SOL     OW12493   3.566   1.521   3.823  0.0848 -0.3591  0.2036
 4225SOL    HW112494   3.524   1.577   3.751  0.1573  0.4767  0.7963
 4225SOL    HW212495   3.595   1.580   3.898  1.8346 -0.9774  0.0573
 4226SOL     OW12496   0.507   3.902   3.725 -0.2943  0.2801 -0.4914
 4226SOL    HW112497   0.580   3.963   3.756  0.1668  0.7991 -2.5119
 4226SOL    HW212498   0.505   3.821   3.785 -0.7240  2.0611  2.0454
 4227SOL     OW12499   1.085   3.997   0.528 -0.0841  0.5527 -0.0305
 4227SOL    HW112500   0.993   3.975   0.560 -0.3295  1.5442 -0.0351
 4227SOL    HW212501   1.082   4.022   0.431  0.2599  0.1380 -0.1499
 4228SOL     OW12502   4.666   0.861   2.062 -0.5004 -0.7546  0.1555
 4228SOL    HW112503   4.765   0.854   2.074 -0.1086 -0.3844 -2.2865
 4228SOL    HW212504   4.620   0.819   2.140  1.5575 -0.5682  1.5537
 4229SOL     OW12505   3.826   2.015   3.378  0.3062  0.4833  0.6181
 4229SOL    HW112506   3.832   2.112   3.399 -0.7242  0.5071  0.8266
 4229SOL    HW212507   3.863   1.962   3.455  1.8335  0.7092  0.0850
 4230SOL     OW12508   1.207   2.582   1.187 -0.2564 -0.2422 -0.3676
 4230SOL    HW112509   1.119   2.539   1.167 -0.8634  1.6309 -2.0304
 4230SOL    HW212510   1.205   2.620   1.280 -0.8090 -1.0915 -0.0179
 4231SOL     OW12511   4.242   4.809   2.214  0.9771 -0.0801  0.0553
 4231SOL    HW112512   4.301   4.852   2.283  0.6100  0.3771  0.0913
 4231SOL    HW212513   4.275   4.832   2.123  0.9125  0.1007  0.0762
 4232SOL     OW12514   4.634   3.332   1.528  0.0361  0.4608 -0.1507
 4232SOL    HW112515   4.644   3.299   1.622  0.1441  0.3207 -0.2119
 4232SOL    HW212516   4.648   3.257   1.464  0.5319  0.6751 -0.3008
 4233SOL     OW12517   1.803   1.068   3.708  0.5835  0.1856  0.1714
 4233SOL    HW112518   1.709   1.037   3.698  0.2712  0.9684  0.5714
 4233SOL    HW212519   1.804   1.159   3.750  1.3447  1.6323 -2.7023
 4234SOL     OW12520   3.724   4.871   3.508 -0.1033  0.0286 -0.2577
 4234SOL    HW112521   3.640   4.839   3.552 -1.3607  2.2353 -0.9442
 4234SOL    HW212522   3.781   4.792   3.484 -1.9742 -1.5158  0.1927
 4235SOL     OW12523   4.333   3.208   0.898  0.2868  0.5777  0.6740
 4235SOL    HW112524   4.371   3.281   0.954  0.7177  0.2755  0.7811
 4235SOL    HW212525   4.246   3.177   0.937 -0.0070  1.1738  0.5080
 4236SOL     OW12526   4.020   2.518   2.655 -0.2174  0.3036  0.2901
 4236SOL    HW112527   3.952   2.567   2.600  0.0619  2.2136  1.5390
 4236SOL    HW212528   3.976   2.445   2.706 -0.8098 -0.2801 -1.0288
 4237SOL     OW12529   2.422   4.582   3.832 -0.2186  0.0953  0.8839
 4237SOL    HW112530   2.348   4.516   3.818 -0.4010  0.5118 -0.2336
 4237SOL    HW212531   2.384   4.675   3.831  0.2948  0.3009  0.4898
 4238SOL     OW12532   3.868   3.973   4.479 -0.6569  0.0872  0.6531
 4238SOL    HW112533   3.769   3.960   4.478 -0.7817  0.6009 -1.8451
 4238SOL    HW212534   3.907   3.936   4.394  1.0258  1.5027  0.7495
 4239SOL     OW12535   4.165   1.141   0.941 -0.8984  0.4054  0.9110
 4239SOL    HW112536   4.166   1.158   1.039  0.4398  1.4897  0.7386
 4239SOL    HW212537   4.255   1.109   0.912 -1.4354 -0.4214  0.1082
 4240SOL     OW12538   3.663   0.616   2.663  0.5254  0.3448 -0.3595
 4240SOL    HW112539   3.691   0.590   2.755 -0.2456  0.1827 -0.1613
 4240SOL    HW212540   3.604   0.545   2.624 -1.1504  1.4840 -0.0236
 4241SOL     OW12541   3.860   3.813   1.844  0.0348  0.3941  0.5066
 4241SOL    HW112542   3.816   3.866   1.916 -0.1735  0.7276  0.1379
 4241SOL    HW212543   3.935   3.865   1.804 -1.1470  1.0694 -0.9103
 4242SOL     OW12544   4.038   1.525   4.011 -0.2528 -0.2191  0.1673
 4242SOL    HW112545   4.041   1.425   4.007 -1.9092 -0.2683 -1.5353
 4242SOL    HW212546   4.099   1.563   3.941 -1.3866 -0.1390 -0.8183
 4243SOL     OW12547   0.296   2.729   3.016  0.2014  0.6313 -0.1583
 4243SOL    HW112548   0.272   2.632   3.024 -0.2672  0.6171 -1.5222
 4243SOL    HW212549   0.395   2.739   3.027  0.2116  0.0483  0.3428
 4244SOL     OW12550   3.848   2.765   1.746 -0.2582 -0.1214 -0.4837
 4244SOL    HW112551   3.778   2.834   1.724 -0.1485  0.1770  0.0892
 4244SOL    HW212552   3.881   2.723   1.661  0.0695  0.9154 -0.8850
 4245SOL     OW12553   4.630   1.186   0.208  0.0479  0.5180  0.1816
 4245SOL    HW112554   4.570   1.236   0.270  0.0862 -0.6905  1.2358
 4245SOL    HW212555   4.690   1.251   0.160 -1.7333  1.6912 -0.5352
 4246SOL     OW12556   0.871   1.776   2.572 -0.0061  0.2360  0.3012
 4246SOL    HW112557   0.968   1.753   2.568 -0.2488 -1.0330  1.0392
 4246SOL    HW212558   0.827   1.748   2.486  0.0844 -0.2449  0.4042
 4247SOL     OW12559   3.331   3.475   2.680 -0.1301  0.1638  0.4211
 4247SOL    HW112560   3.409   3.453   2.621  1.9262  1.1427  2.5977
 4247SOL    HW212561   3.334   3.417   2.762 -2.5562 -0.7317 -0.0288
 4248SOL     OW12562   1.926   3.227   2.595  0.6286 -0.1590 -0.1695
 4248SOL    HW112563   2.015   3.263   2.625  1.2577 -0.3786 -1.7009
 4248SOL    HW212564   1.931   3.202   2.499 -1.4651  0.9815 -0.6255
 4249SOL     OW12565   3.157   0.586   0.760  0.3258  0.3286 -0.1678
 4249SOL    HW112566   3.119   0.606   0.670 -0.9182  0.4964  0.3628
 4249SOL    HW212567   3.155   0.488   0.776 -0.5680  0.3810  0.1191
 4250SOL     OW12568   0.114   0.705   2.964 -0.3938 -0.0978  0.1750
 4250SOL    HW112569   0.057   0.777   2.923 -0.5432 -1.1938 -1.6621
 4250SOL    HW212570   0.206   0.709   2.926 -0.4952 -1.0600 -0.2176
 4251SOL     OW12571   0.501   3.113   2.370  0.3465 -0.1917  0.0966
 4251SOL    HW112572   0.546   3.037   2.417  0.7948 -0.4906 -0.8015
 4251SOL    HW212573   0.570   3.173   2.330  0.0568  1.3942  1.8162
 4252SOL     OW12574   4.527   0.772   3.441 -0.3427  0.5256  0.3384
 4252SOL    HW112575   4.544   0.797   3.345 -1.1966 -0.2990 -0.0444
 4252SOL    HW212576   4.573   0.686   3.462 -3.8619 -1.8188 -0.7581
 4253SOL     OW12577   4.738   0.225   1.755  0.1318 -0.3231  0.3215
 4253SOL    HW112578   4.704   0.137   1.723 -3.0151  1.3385 -1.3708
 4253SOL    HW212579   4.770   0.279   1.677  0.7977  0.5042  1.1506
 4254SOL     OW12580   4.048   0.081   1.037  0.3007  0.2069  0.0926
 4254SOL    HW112581   4.006   0.170   1.024  0.2678  0.1310 -0.3183
 4254SOL    HW212582   4.028   0.022   0.959 -1.0524 -0.7138  1.0810
 4255SOL     OW12583   1.229   0.012   0.007 -0.5079  0.2638 -0.2473
 4255SOL    HW112584   1.308  -0.008  -0.052 -1.0135 -0.2941 -0.7338
 4255SOL    HW212585   1.145  -0.000  -0.044 -0.9221  0.9889  0.2370
 4256SOL     OW12586   1.358   4.339   2.818 -0.1723 -0.6875 -0.6025
 4256SOL    HW112587   1.398   4.410   2.760 -2.7111  1.0461 -0.4533
 4256SOL    HW212588   1.394   4.250   2.793  1.9256  0.4569 -1.9465
 4257SOL     OW12589   4.193   0.822   0.483  0.4167 -0.2908  0.3204
 4257SOL    HW112590   4.175   0.885   0.408 -0.9872 -0.6870  0.2932
 4257SOL    HW212591   4.109   0.806   0.534  1.0930 -0.9433  1.2682
 4258SOL     OW12592   3.531   4.622   4.729 -0.4059  0.3881 -0.1064
 4258SOL    HW112593   3.513   4.536   4.778 -1.8763  0.5751 -0.2738
 4258SOL    HW212594   3.513   4.699   4.789 -0.2852  0.5946 -0.3353
 4259SOL     OW12595   1.032   1.397   2.193  0.3307 -0.2732 -0.3362
 4259SOL    HW112596   1.125   1.425   2.217  1.0977 -2.7389 -0.0969
 4259SOL    HW212597   0.969   1.423   2.266  1.4287 -1.4067  1.0645
 4260SOL     OW12598   4.204   4.045   0.662 -0.0456  0.3832  0.0252
 4260SOL    HW112599   4.193   4.143   0.677 -1.5165  0.2198  0.1851
 4260SOL    HW212600   4.216   3.999   0.750 -0.9186  0.2668  0.0946
 4261SOL     OW12601   2.660   3.927   1.400  0.1756  0.3456  0.0123
 4261SOL    HW112602   2.590   3.967   1.460  1.1627  2.1989 -0.0020
 4261SOL    HW212603   2.684   3.992   1.329  1.3617 -0.5682 -0.4555
 4262SOL     OW12604   1.973   4.222   1.335  0.0928  0.4590  0.8827
 4262SOL    HW112605   2.067   4.226   1.368  0.0494  3.3588  0.9362
 4262SOL    HW212606   1.966   4.159   1.258  2.1206  0.3479  0.7547
 4263SOL     OW12607   1.666   3.870   3.355 -0.1493 -0.2251  0.0423
 4263SOL    HW112608   1.708   3.793   3.307  0.7549  1.1023 -1.3885
 4263SOL    HW212609   1.694   3.868   3.451  0.5804 -1.1703 -0.1674
 4264SOL     OW12610   0.998   1.800   1.209  0.2153  0.3254  0.3273
 4264SOL    HW112611   1.036   1.843   1.291  0.2850 -0.9593  1.0017
 4264SOL    HW212612   1.061   1.812   1.132  2.0711 -1.7342  1.4112
 4265SOL     OW12613   0.387   0.109   3.149 -0.2039 -0.6751 -0.2414
 4265SOL    HW112614   0.390   0.207   3.167  1.4370 -0.7935  0.2962
 4265SOL    HW212615   0.299   0.073   3.179 -0.9015  0.6543 -0.6205
 4266SOL     OW12616   0.936   4.465   3.374  0.1342 -0.5546  0.4175
 4266SOL    HW112617   1.034   4.445   3.372  0.3736  0.4733  1.0256
 4266SOL    HW212618   0.893   4.415   3.449  0.7169  1.0367  1.8893
 4267SOL     OW12619   0.704   4.065   3.871  0.5816  0.2097  0.3739
 4267SOL    HW112620   0.685   4.076   3.968 -0.9150 -0.5765  0.2001
 4267SOL    HW212621   0.794   4.021   3.860  0.3640 -0.5467  1.4381
 4268SOL     OW12622   1.724   1.784   4.889  0.0495 -0.6000  0.1522
 4268SOL    HW112623   1.638   1.774   4.839 -0.8682  0.0945  1.4962
 4268SOL    HW212624   1.728   1.877   4.927  2.7893  0.4327 -2.3048
 4269SOL     OW12625   0.079   0.361   1.162 -0.5541  0.0595  0.5636
 4269SOL    HW112626  -0.019   0.365   1.179 -0.5502 -1.1613  0.9682
 4269SOL    HW212627   0.097   0.376   1.065 -1.0990  0.6865  0.5519
 4270SOL     OW12628   1.766   1.993   3.717  0.5683  0.2344  0.1435
 4270SOL    HW112629   1.759   1.936   3.636 -2.2044  2.6521 -1.5179
 4270SOL    HW212630   1.733   1.942   3.797  1.3339 -1.4917 -0.5922
 4271SOL     OW12631   1.904   4.625   0.125  0.0710 -0.1471 -0.6464
 4271SOL    HW112632   1.875   4.582   0.040  0.3750 -0.8510 -0.4059
 4271SOL    HW212633   1.992   4.587   0.153  0.3472  0.6472 -0.4248
 4272SOL     OW12634   3.016   4.732   3.649  0.5056 -0.2037 -0.1888
 4272SOL    HW112635   3.054   4.802   3.588  1.9393 -1.2584 -0.5880
 4272SOL    HW212636   3.091   4.687   3.698 -0.3918 -1.3119  0.2148
 4273SOL     OW12637   1.417   1.605   0.586 -0.6575  0.2080 -0.6178
 4273SOL    HW112638   1.345   1.562   0.532  0.9348 -1.7982 -1.2807
 4273SOL    HW212639   1.497   1.621   0.529  0.6024 -0.7094  0.8038
 4274SOL     OW12640   1.542   2.902   2.489 -0.3936 -0.6677  0.3555
 4274SOL    HW112641   1.600   2.907   2.570 -1.8727 -1.8287  1.5294
 4274SOL    HW212642   1.484   2.821   2.494 -1.7693  0.1841 -1.0182
 4275SOL     OW12643   0.011   0.026   2.991 -0.1997  0.0595  0.0551
 4275SOL    HW112644  -0.047  -0.028   3.052 -1.1549  2.1724  1.1354
 4275SOL    HW212645   0.049   0.104   3.041  0.4292  0.8875 -1.6225
 4276SOL     OW12646   3.481   3.393   0.185  0.2299 -0.1499 -0.0482
 4276SOL    HW112647   3.408   3.385   0.117  0.2499 -1.0374  0.0242
 4276SOL    HW212648   3.441   3.395   0.277  0.2930 -0.6303 -0.0089
 4277SOL     OW12649   1.181   0.113   0.510  0.2947 -0.0206  0.0887
 4277SOL    HW112650   1.198   0.181   0.581 -1.0055  0.4897 -0.0643
 4277SOL    HW212651   1.082   0.105   0.495  0.4742 -1.3470 -0.4749
 4278SOL     OW12652   2.448   2.397   2.698  0.4182  0.2423 -0.1541
 4278SOL    HW112653   2.523   2.417   2.634  0.9506 -2.0265 -0.3083
 4278SOL    HW212654   2.372   2.459   2.679  0.3585 -0.5944 -3.3203
 4279SOL     OW12655   1.328   3.450   0.791  0.2378  1.0042  0.1252
 4279SOL    HW112656   1.289   3.535   0.827 -1.4507  0.5448 -0.4873
 4279SOL    HW212657   1.273   3.372   0.823  0.0556  0.4029 -1.5247
 4280SOL     OW12658   3.583   0.044   3.446  0.0558 -0.1329 -0.6093
 4280SOL    HW112659   3.632  -0.042   3.464 -0.2612  0.0476  1.3530
 4280SOL    HW212660   3.623   0.117   3.501 -0.5386  0.6857 -1.2409
 4281SOL     OW12661   2.554   0.493   0.274 -0.0677  0.5454  1.1881
 4281SOL    HW112662   2.497   0.491   0.357 -1.6335  0.7440  0.1630
 4281SOL    HW212663   2.554   0.586   0.237  1.2986  0.6418  1.3971
 4282SOL     OW12664   0.595   0.085   0.063 -0.4353  0.2422  0.3187
 4282SOL    HW112665   0.660   0.117  -0.006 -0.7977 -0.5810 -0.4145
 4282SOL    HW212666   0.505   0.072   0.021 -0.6131 -0.4532  0.8956
 4283SOL     OW12667   4.417   1.571   0.274  0.3803  0.0875 -0.6073
 4283SOL    HW112668   4.357   1.605   0.202 -0.4688 -1.8195 -0.8570
 4283SOL    HW212669   4.370   1.576   0.362  0.6145  0.4074 -0.4951
 4284SOL     OW12670   3.395   4.783   1.610  0.6144 -0.0702 -0.5148
 4284SOL    HW112671   3.472   4.764   1.549 -0.0996 -0.7005 -1.2393
 4284SOL    HW212672   3.341   4.859   1.574  0.1488 -0.4925 -0.7314
 4285SOL     OW12673   0.592   4.126   4.636  0.3986  0.0326 -0.0913
 4285SOL    HW112674   0.645   4.146   4.554 -1.1510  0.4266 -1.0428
 4285SOL    HW212675   0.544   4.209   4.665  0.1547 -0.3554  0.6370
 4286SOL     OW12676   2.815   4.803   1.389 -0.0833 -0.4596 -0.6255
 4286SOL    HW112677   2.911   4.821   1.406 -0.6867  1.1617  1.4707
 4286SOL    HW212678   2.776   4.877   1.334 -0.6653  0.3063  0.7558
 4287SOL     OW12679   0.003   4.388   3.163  0.4206 -0.0880  0.3093
 4287SOL    HW112680  -0.052   4.364   3.242 -0.6683 -3.3286 -1.2642
 4287SOL    HW212681  -0.041   4.463   3.113 -0.4449 -0.0418  1.1271
 4288SOL     OW12682   2.341   3.036   5.018 -0.2234 -0.3269 -0.0147
 4288SOL    HW112683   2.305   3.060   5.108  0.4664 -1.3522  0.5573
 4288SOL    HW212684   2.369   2.940   5.018 -0.0021 -0.2789 -1.2577
 4289SOL     OW12685   0.875   4.787   1.047 -0.1296 -0.3459 -0.4543
 4289SOL    HW112686   0.969   4.758   1.065 -0.2406 -0.5711 -0.2290
 4289SOL    HW212687   0.862   4.801   0.949  1.5919  4.6457 -0.2232
 4290SOL     OW12688   0.991   4.070   1.387  0.3113 -0.0162  0.6677
 4290SOL    HW112689   1.034   4.156   1.412  1.6950 -0.8690  1.3550
 4290SOL    HW212690   1.061   4.001   1.371 -0.7383 -0.8487 -0.5719
 4291SOL     OW12691   1.240   2.061   1.093  0.0333 -0.4877 -0.0401
 4291SOL    HW112692   1.196   1.972   1.083 -1.3875  0.3479 -1.8119
 4291SOL    HW212693   1.325   2.062   1.040 -0.7904 -0.3200 -1.4274
 4292SOL     OW12694   1.214   2.452   4.813  0.0705 -0.5573 -1.0168
 4292SOL    HW112695   1.153   2.404   4.875  0.7547  1.3408  1.2705
 4292SOL    HW212696   1.161   2.515   4.756 -0.1947  1.7271  1.5572
 4293SOL     OW12697   1.547   3.577   0.702  0.1157  0.8152  0.0966
 4293SOL    HW112698   1.549   3.581   0.602 -2.2472  2.2282  0.0393
 4293SOL    HW212699   1.474   3.516   0.732  1.3644 -0.2841  1.0106
 4294SOL     OW12700   1.955   2.005   2.636 -0.0567 -0.2136  0.6412
 4294SOL    HW112701   1.991   1.979   2.547  1.2996 -0.3789  1.1978
 4294SOL    HW212702   1.986   1.938   2.705 -2.2568 -0.8911  1.0366
 4295SOL     OW12703   4.948   2.044   4.197  0.4004 -0.3700 -0.2948
 4295SOL    HW112704   5.013   2.016   4.267 -0.2295 -3.1071 -0.6716
 4295SOL    HW212705   4.864   2.076   4.239  0.8712  0.2866  0.1678
 4296SOL     OW12706   4.923   4.748   1.004 -0.1705  0.1712  0.5305
 4296SOL    HW112707   5.021   4.726   1.003  0.0045  0.3409  3.6669
 4296SOL    HW212708   4.871   4.669   0.971  0.9671 -0.5118  0.3069
 4297SOL     OW12709   3.127   1.397   0.189  0.4571  0.3877 -0.5687
 4297SOL    HW112710   3.092   1.491   0.182 -1.0897 -0.2047 -1.6061
 4297SOL    HW212711   3.086   1.342   0.116 -1.1781 -1.8382  1.8520
 4298SOL     OW12712   4.556   2.998   2.815 -0.3143 -0.2783  0.3209
 4298SOL    HW112713   4.541   2.918   2.873 -0.1163 -0.4905  0.0838
 4298SOL    HW212714   4.582   3.076   2.872  0.3149 -0.5949  0.4801
 4299SOL     OW12715   0.821   2.889   0.756  0.0722  0.4470 -0.2054
 4299SOL    HW112716   0.776   2.882   0.845  1.2855 -0.3864  0.3656
 4299SOL    HW212717   0.838   2.985   0.735 -0.4365  0.6654  0.3499
 4300SOL     OW12718   4.615   4.975   3.986  0.6521  0.0014  0.1111
 4300SOL    HW112719   4.675   4.898   3.966  0.4294  0.3534 -2.1652
 4300SOL    HW212720   4.529   4.964   3.936 -0.0625  0.9084  1.0893
 4301SOL     OW12721   3.859   0.288   1.994 -0.2853 -0.5527  0.8042
 4301SOL    HW112722   3.894   0.348   2.066  0.5771  0.8976 -0.7373
 4301SOL    HW212723   3.867   0.193   2.022  1.3190 -0.0859  2.0658
 4302SOL     OW12724   3.891   4.752   2.529  0.2579  0.4444 -0.0660
 4302SOL    HW112725   3.823   4.724   2.461  0.9677  1.3866 -1.2113
 4302SOL    HW212726   3.903   4.679   2.596  0.9707 -1.3931 -2.0916
 4303SOL     OW12727   3.318   3.047   4.812  0.6149  0.1730 -0.7092
 4303SOL    HW112728   3.411   3.015   4.825  1.0122  1.7220  0.5940
 4303SOL    HW212729   3.319   3.141   4.776 -0.4104  0.6002  0.3117
 4304SOL     OW12730   4.463   4.424   3.677  0.2784 -0.7693 -0.2100
 4304SOL    HW112731   4.515   4.435   3.592 -0.2157 -2.0115 -0.6899
 4304SOL    HW212732   4.366   4.436   3.659  0.2959  0.7347  0.5399
 4305SOL     OW12733   2.598   1.889   0.388  0.3378 -0.1132  0.0427
 4305SOL    HW112734   2.644   1.845   0.310 -0.6769  0.6917 -1.0589
 4305SOL    HW212735   2.526   1.830   0.422  0.5561 -0.3222  0.1447
 4306SOL     OW12736   2.837   5.010   3.543 -0.3554  0.5347  0.3484
 4306SOL    HW112737   2.769   4.951   3.500 -0.4310 -0.1644  1.3903
 4306SOL    HW212738   2.926   4.965   3.542  0.7846  2.4205 -3.2245
 4307SOL     OW12739   4.336   2.691   2.516  0.0401 -0.7639 -0.3598
 4307SOL    HW112740   4.293   2.669   2.603 -1.1621 -0.4045 -0.8535
 4307SOL    HW212741   4.397   2.770   2.527  0.1574 -0.9331  0.2186
 4308SOL     OW12742   4.221   0.964   1.210 -0.1052  0.2159 -0.3292
 4308SOL    HW112743   4.185   0.885   1.160  1.3662 -0.3611 -0.5195
 4308SOL    HW212744   4.252   0.936   1.300 -0.4482  0.7746 -0.0299
 4309SOL     OW12745   0.099   4.349   2.455  0.2225 -0.1900  0.0931
 4309SOL    HW112746   0.091   4.252   2.476  3.2066 -0.1554  1.9343
 4309SOL    HW212747   0.070   4.403   2.534 -0.7831  0.4176 -0.6741
 4310SOL     OW12748   0.949   0.302   4.214  0.5511 -0.4560 -0.1846
 4310SOL    HW112749   0.888   0.228   4.184 -0.6027 -0.2763  1.5568
 4310SOL    HW212750   0.921   0.388   4.172  0.4688 -0.6020 -0.4347
 4311SOL     OW12751   2.655   0.232   4.260  0.0778 -0.1933  0.3864
 4311SOL    HW112752   2.611   0.289   4.330  1.1899  0.7282  0.3695
 4311SOL    HW212753   2.598   0.229   4.178 -1.3829 -1.5249  1.3952
 4312SOL     OW12754   1.957   4.907   0.673 -0.3581 -0.5491  0.5237
 4312SOL    HW112755   1.890   4.837   0.697 -0.1348 -1.0507 -0.2719
 4312SOL    HW212756   2.034   4.864   0.625 -0.9352  0.4269 -1.3593
 4313SOL     OW12757   1.962   1.686   3.175  0.1397  0.0295 -0.2318
 4313SOL    HW112758   1.926   1.732   3.094  0.3137  1.9609  0.7301
 4313SOL    HW212759   2.038   1.739   3.213  0.5336 -1.2074  0.7902
 4314SOL     OW12760   4.304   3.626   4.910 -0.2591  0.2296  0.0886
 4314SOL    HW112761   4.366   3.695   4.873  0.5879  0.3057  1.5596
 4314SOL    HW212762   4.244   3.668   4.977 -0.5761 -0.2214  0.0910
 4315SOL     OW12763   4.772   4.228   2.000  0.1149 -0.2881 -0.7799
 4315SOL    HW112764   4.754   4.289   1.923  1.9188 -1.8279 -2.5440
 4315SOL    HW212765   4.852   4.172   1.980 -0.3213 -1.9023  1.5579
 4316SOL     OW12766   0.767   0.544   1.343 -0.7021 -0.5800  0.1582
 4316SOL    HW112767   0.794   0.589   1.428  0.1680 -1.9950  0.6628
 4316SOL    HW212768   0.760   0.612   1.270 -2.1291  0.7647  1.4803
 4317SOL     OW12769   3.390   2.258   4.891 -0.5289 -0.4282 -0.2224
 4317SOL    HW112770   3.484   2.242   4.859 -0.4029  0.3280 -0.2391
 4317SOL    HW212771   3.362   2.182   4.950 -0.7054 -1.7807 -1.9604
 4318SOL     OW12772   4.371   0.722   4.773  0.4863  0.2138 -0.1700
 4318SOL    HW112773   4.287   0.744   4.823 -0.3555  1.2847 -1.9627
 4318SOL    HW212774   4.446   0.710   4.838 -1.1627 -1.5082  1.5495
 4319SOL     OW12775   2.154   3.675   3.375 -0.2374  0.2732 -0.1063
 4319SOL    HW112776   2.080   3.739   3.396 -1.1517 -0.8251  0.1357
 4319SOL    HW212777   2.139   3.636   3.284 -0.7639 -1.0168  0.5132
 4320SOL     OW12778   1.453   0.180   1.504  0.3477  0.1405  0.0398
 4320SOL    HW112779   1.549   0.164   1.527  0.9882  1.0373 -1.7935
 4320SOL    HW212780   1.396   0.161   1.583  2.2362  1.6986  1.8722
 4321SOL     OW12781   2.163   2.001   4.012  0.9667 -0.0837  0.3879
 4321SOL    HW112782   2.110   2.066   3.957  2.6968  0.9919 -0.0539
 4321SOL    HW212783   2.197   1.928   3.953 -0.2151 -0.9526  0.7289
 4322SOL     OW12784   2.695   4.624   3.263 -0.2185 -0.2770  0.3536
 4322SOL    HW112785   2.752   4.543   3.255  0.5406  0.2711  0.1001
 4322SOL    HW212786   2.615   4.603   3.319  0.1283 -1.1097  0.5519
 4323SOL     OW12787   0.961   4.473   0.812 -0.1900  0.2113  0.3025
 4323SOL    HW112788   1.012   4.559   0.805  0.3657 -0.1488 -0.2178
 4323SOL    HW212789   0.936   4.442   0.720  0.0005 -0.4051  0.4537
 4324SOL     OW12790   1.479   2.042   0.020  0.1676  0.2182  0.4681
 4324SOL    HW112791   1.457   1.960   0.072  1.0144 -0.2823  0.0593
 4324SOL    HW212792   1.406   2.061  -0.046 -0.3434  0.1806  1.0218
 4325SOL     OW12793   2.078   2.473   0.818  0.2525  0.0224 -0.7180
 4325SOL    HW112794   2.135   2.393   0.837  1.1771  0.6353 -0.8318
 4325SOL    HW212795   2.112   2.551   0.871 -1.5893 -0.0194  0.6008
 4326SOL     OW12796   2.135   5.007   0.439 -0.5860  0.0781 -0.1362
 4326SOL    HW112797   2.146   5.072   0.514 -0.9583 -1.0527  0.9504
 4326SOL    HW212798   2.210   5.018   0.374  0.4872  0.2284  1.0842
 4327SOL     OW12799   2.431   4.896   1.026 -0.2049 -0.1190 -0.1240
 4327SOL    HW112800   2.356   4.914   1.091  1.7657 -1.4204  2.7309
 4327SOL    HW212801   2.418   4.807   0.984 -0.0595 -0.5796  0.7714
 4328SOL     OW12802   3.371   1.702   0.183 -0.3499  0.1177  0.1096
 4328SOL    HW112803   3.401   1.720   0.089  0.0995  1.4817  0.4889
 4328SOL    HW212804   3.276   1.730   0.193 -0.2961  0.2883  0.1461
 4329SOL     OW12805   2.654   2.555   1.519  0.1524  0.4281 -0.2005
 4329SOL    HW112806   2.561   2.543   1.556  0.2191 -1.5650 -0.5907
 4329SOL    HW212807   2.713   2.481   1.553  1.3395  1.0762 -0.8078
 4330SOL     OW12808   0.124   4.908   2.784 -0.5138 -0.7075  0.0581
 4330SOL    HW112809   0.089   4.955   2.865 -0.7484 -1.4264  0.3769
 4330SOL    HW212810   0.075   4.942   2.703 -0.6773 -0.4004  0.2803
 4331SOL     OW12811   1.920   0.043   3.902  0.0374 -0.2626  0.2683
 4331SOL    HW112812   1.838  -0.002   3.937  0.8055 -0.2466  2.2150
 4331SOL    HW212813   1.898   0.137   3.876 -0.4800 -0.1118  1.2104
 4332SOL     OW12814   4.751   2.419   0.792 -0.2484 -0.2336  0.2877
 4332SOL    HW112815   4.758   2.479   0.872  0.4793 -0.6102  0.5230
 4332SOL    HW212816   4.676   2.355   0.805 -0.1311 -0.2976  0.6819
 4333SOL     OW12817   0.753   0.766   3.099 -0.3388 -0.1201  0.5936
 4333SOL    HW112818   0.823   0.811   3.044 -0.5898  0.0723  0.4284
 4333SOL    HW212819   0.668   0.819   3.095 -1.1485 -1.4506 -0.9682
 4334SOL     OW12820   4.349   3.943   3.347  0.5800  0.6381 -0.0773
 4334SOL    HW112821   4.366   3.991   3.433 -0.1072  1.3533 -0.3246
 4334SOL    HW212822   4.436   3.908   3.311  0.8455  0.1314  1.0064
 4335SOL     OW12823   0.782   3.143   2.632 -0.2695  0.0827  0.4204
 4335SOL    HW112824   0.723   3.064   2.613 -2.9258  1.8047  0.9052
 4335SOL    HW212825   0.796   3.196   2.548 -0.7696  0.5114  0.5988
 4336SOL     OW12826   0.672   4.247   2.330  0.5196 -0.5405  0.1339
 4336SOL    HW112827   0.597   4.262   2.393  0.4566 -0.7328  0.1054
 4336SOL    HW212828   0.640   4.260   2.236  0.6222 -0.2165  0.1400
 4337SOL     OW12829   2.121   4.137   0.525  0.2978 -0.3998 -0.1829
 4337SOL    HW112830   2.053   4.073   0.488 -1.0417  1.1569 -0.5294
 4337SOL    HW212831   2.169   4.181   0.449  1.3957 -1.1490  0.0576
 4338SOL     OW12832   1.398   1.808   2.484 -0.8158 -0.2402 -0.1602
 4338SOL    HW112833   1.438   1.805   2.392 -1.1442 -0.1439 -0.3036
 4338SOL    HW212834   1.407   1.717   2.526 -2.0684 -0.7248 -0.8809
 4339SOL     OW12835   2.777   0.068   1.533  0.3345  0.4859  0.4766
 4339SOL    HW112836   2.852   0.005   1.551  0.0806  0.2714  0.7892
 4339SOL    HW212837   2.807   0.138   1.468  0.2392 -0.7030 -0.9209
 4340SOL     OW12838   3.497   4.567   4.011 -0.5271  0.1850  0.4181
 4340SOL    HW112839   3.542   4.589   4.098 -0.8697 -0.0569  0.6572
 4340SOL    HW212840   3.539   4.621   3.938  0.0812  0.0372  0.6536
 4341SOL     OW12841   3.846   0.337   3.368  0.2510 -0.1915  0.1689
 4341SOL    HW112842   3.879   0.364   3.459 -2.4042 -1.5840  1.6657
 4341SOL    HW212843   3.776   0.402   3.337  0.3476 -0.3451 -0.3853
 4342SOL     OW12844   2.759   0.900   2.307 -0.4296  0.0906 -0.4970
 4342SOL    HW112845   2.774   0.927   2.402 -2.5367  0.7043 -0.2912
 4342SOL    HW212846   2.661   0.894   2.290 -0.0742 -0.4080 -2.5429
 4343SOL     OW12847   4.372   1.193   2.650 -0.2755  0.3112  0.1075
 4343SOL    HW112848   4.274   1.173   2.647 -0.2605  0.3242 -0.5239
 4343SOL    HW212849   4.421   1.130   2.590  0.3212 -0.9028  1.7980
 4344SOL     OW12850   3.633   0.217   3.667 -0.3376  0.1930 -0.0376
 4344SOL    HW112851   3.534   0.219   3.679 -0.6129  1.2041 -2.0236
 4344SOL    HW212852   3.677   0.280   3.730 -0.6292 -2.2508  2.8197
 4345CL      CL12853   0.616   1.858   4.833  0.0410  0.2744  0.1378
   5.04329   5.04329   5.04329
