Protein in water
12853
  117GLY      N    1   1.248   2.977   2.856 -0.1953  0.1713  0.3760
  117GLY     H1    2   1.345   3.004   2.845 -0.5498  1.2889 -0.1122
  117GLY     H2    3   1.205   2.943   2.771  0.4937 -0.1846  0.1591
  117GLY     H3    4   1.185   3.049   2.886 -2.5777  0.7355 -4.9123
  117GLY     CA    5   1.229   2.862   2.940  0.4609  0.2860  0.0525
  117GLY    HA1    6   1.270   2.884   3.039 -0.9492  0.7506  0.5554
  117GLY    HA2    7   1.121   2.849   2.945  0.6605 -2.6347 -1.1517
  117GLY      C    8   1.298   2.726   2.893 -0.4155  0.3282  0.1530
  117GLY      O    9   1.302   2.624   2.964  0.4549 -0.2843  0.0185
  118THR      N   10   1.353   2.713   2.773  0.3583 -0.8934 -0.2069
  118THR      H   11   1.379   2.793   2.717  0.8809 -2.0288 -1.6617
  118THR     CA   12   1.433   2.601   2.728 -0.1762 -0.0864  0.1862
  118THR     HA   13   1.375   2.510   2.745  1.0152 -0.9164 -0.0641
  118THR     CB   14   1.455   2.609   2.573  0.4819  0.4617 -0.2082
  118THR     HB   15   1.518   2.526   2.539  1.3577 -0.7105  3.7795
  118THR    OG1   16   1.522   2.726   2.523  0.2675  0.6300 -0.0002
  118THR    HG1   17   1.485   2.802   2.564  1.9747  1.0543  0.8537
  118THR    CG2   18   1.325   2.584   2.493 -0.2026  0.2459 -0.3289
  118THR   HG21   19   1.280   2.485   2.505  0.8942 -0.1637  0.5619
  118THR   HG22   20   1.246   2.656   2.516  1.1792  1.8556 -0.4072
  118THR   HG23   21   1.342   2.596   2.386 -1.4409  1.0934 -0.4514
  118THR      C   22   1.574   2.582   2.796 -0.1747  0.2397  0.2281
  118THR      O   23   1.615   2.665   2.876  0.5213  0.1481 -0.2229
  119ASP      N   24   1.642   2.471   2.771  0.8280  0.1409  0.2089
  119ASP      H   25   1.607   2.423   2.689  1.6643  1.0430 -0.7131
  119ASP     CA   26   1.782   2.446   2.795 -0.1887  0.5436 -0.2335
  119ASP     HA   27   1.817   2.491   2.888  1.5719 -0.4414 -0.3758
  119ASP     CB   28   1.796   2.288   2.803  0.4197 -0.7865 -0.1692
  119ASP    HB1   29   1.727   2.245   2.876  1.5156  0.8028  1.9028
  119ASP    HB2   30   1.783   2.254   2.700 -1.1758  2.0886 -1.0282
  119ASP     CG   31   1.939   2.249   2.838  0.2154  0.5614 -0.5386
  119ASP    OD1   32   2.003   2.323   2.920  0.6300  0.5160  0.8676
  119ASP    OD2   33   1.985   2.144   2.785  0.2647 -0.3793 -0.3675
  119ASP      C   34   1.869   2.519   2.693  0.0739 -0.1883 -0.0700
  119ASP      O   35   1.907   2.459   2.592  0.4341 -0.1162 -0.3675
  120VAL      N   36   1.881   2.651   2.708 -0.4003 -0.2761  0.2657
  120VAL      H   37   1.845   2.696   2.791 -0.0840 -0.9258  0.7624
  120VAL     CA   38   1.977   2.734   2.632 -0.2962  0.7417  0.3743
  120VAL     HA   39   1.963   2.716   2.525  2.2325  1.6687 -0.1926
  120VAL     CB   40   1.957   2.886   2.650 -0.7000 -0.8227  0.0378
  120VAL     HB   41   2.040   2.939   2.602  0.1865 -2.6728 -0.5533
  120VAL    CG1   42   1.828   2.933   2.590  0.3282  0.5195 -0.5419
  120VAL   HG11   43   1.801   2.880   2.499 -1.6352  3.6020 -1.9244
  120VAL   HG12   44   1.745   2.917   2.659  0.4666  0.9359 -0.2717
  120VAL   HG13   45   1.834   3.040   2.569 -1.6233  0.8482  0.3436
  120VAL    CG2   46   1.965   2.934   2.801  0.2572  0.2018  0.6501
  120VAL   HG21   47   2.066   2.930   2.841 -0.0719  0.6207  1.5484
  120VAL   HG22   48   1.937   3.040   2.801 -0.3879  0.0385  0.7700
  120VAL   HG23   49   1.898   2.874   2.864  1.2170 -1.9085 -0.2593
  120VAL      C   50   2.129   2.696   2.656  0.0655 -0.1648  0.5983
  120VAL      O   51   2.215   2.739   2.577 -0.4403 -0.2587  0.4985
  121GLN      N   52   2.167   2.612   2.749  0.8323  0.2434 -0.1658
  121GLN      H   53   2.099   2.603   2.824 -0.2836  0.3502 -1.1271
  121GLN     CA   54   2.299   2.553   2.763 -0.9368  0.3104 -0.4281
  121GLN     HA   55   2.368   2.636   2.762  0.1408 -0.5675 -0.6448
  121GLN     CB   56   2.310   2.492   2.901  0.3932  0.7355  0.2948
  121GLN    HB1   57   2.261   2.538   2.988 -0.1638 -1.8616  1.4750
  121GLN    HB2   58   2.242   2.407   2.902 -1.5179  2.1831  0.2616
  121GLN     CG   59   2.461   2.454   2.942  0.1266 -0.4701  0.3295
  121GLN    HG1   60   2.514   2.399   2.864 -1.6215  0.6876 -1.7868
  121GLN    HG2   61   2.501   2.555   2.948 -1.1144  0.2349 -1.8905
  121GLN     CD   62   2.483   2.409   3.085 -0.1875 -0.7146 -0.5898
  121GLN    OE1   63   2.598   2.422   3.136  0.4263 -0.7542  0.1198
  121GLN    NE2   64   2.375   2.396   3.162  0.3801 -0.1707 -0.3296
  121GLN   HE21   65   2.289   2.363   3.120  0.5549 -1.4932  0.2789
  121GLN   HE22   66   2.372   2.401   3.263 -1.5250 -0.4280 -0.3314
  121GLN      C   67   2.331   2.450   2.649 -0.3045  0.9367  0.2162
  121GLN      O   68   2.446   2.431   2.604  0.2475  0.9651 -0.3478
  122ALA      N   69   2.228   2.400   2.577 -0.4027 -0.2070 -0.2834
  122ALA      H   70   2.138   2.424   2.616  0.0609 -0.5442  1.0501
  122ALA     CA   71   2.232   2.320   2.454 -0.5683  0.0883 -0.3868
  122ALA     HA   72   2.279   2.227   2.485 -1.0936  0.6012  2.1440
  122ALA     CB   73   2.092   2.289   2.404 -0.2607  0.6058 -0.3946
  122ALA    HB1   74   2.039   2.242   2.487 -0.5857  1.1161 -0.3068
  122ALA    HB2   75   2.033   2.374   2.369 -0.2314  0.0616 -1.8163
  122ALA    HB3   76   2.095   2.215   2.324  0.4153 -1.6552  1.6263
  122ALA      C   77   2.307   2.389   2.343  0.3003 -0.1819 -0.0821
  122ALA      O   78   2.375   2.319   2.274  1.0706  0.2866  0.9908
  123TRP      N   79   2.319   2.523   2.337 -0.6887  0.0127  0.0407
  123TRP      H   80   2.254   2.577   2.393 -2.1288  0.1846 -1.6582
  123TRP     CA   81   2.397   2.598   2.236  0.8085 -0.6132  0.1330
  123TRP     HA   82   2.401   2.543   2.142 -0.6716  1.4292 -1.2041
  123TRP     CB   83   2.326   2.736   2.223  0.3051  0.1041 -0.3668
  123TRP    HB1   84   2.320   2.789   2.319  0.1451 -0.9400  0.2125
  123TRP    HB2   85   2.369   2.802   2.148  0.5020  1.4472  0.8611
  123TRP     CG   86   2.182   2.724   2.179 -0.0935 -0.9488  0.3544
  123TRP    CD1   87   2.076   2.754   2.257 -0.2191 -0.2979 -0.0089
  123TRP    HD1   88   2.064   2.791   2.358  1.6871 -2.1439  0.9865
  123TRP    CD2   89   2.134   2.679   2.048 -0.6637 -0.8289  0.4913
  123TRP    NE1   90   1.963   2.724   2.187 -0.4002  0.6712  1.3372
  123TRP    HE1   91   1.875   2.721   2.237  0.7898  0.3542  3.5515
  123TRP    CE2   92   1.986   2.677   2.054 -0.9029  0.2526  0.2205
  123TRP    CE3   93   2.197   2.656   1.923  0.0985  0.1728 -0.1772
  123TRP    HE3   94   2.305   2.652   1.912  0.0959 -0.3268 -0.0508
  123TRP    CZ2   95   1.908   2.640   1.942 -0.5538 -0.5272 -0.0650
  123TRP    HZ2   96   1.800   2.635   1.945 -0.6507 -0.8591 -2.1652
  123TRP    CZ3   97   2.124   2.619   1.811  0.2715  0.2266 -0.3837
  123TRP    HZ3   98   2.169   2.599   1.715  0.3852  1.3573 -0.5825
  123TRP    CH2   99   1.983   2.614   1.820  0.1044  0.1681 -0.5054
  123TRP    HH2  100   1.918   2.591   1.737 -1.3476  1.1982  0.3015
  123TRP      C  101   2.547   2.615   2.267  0.1694 -0.6977  0.2497
  123TRP      O  102   2.620   2.676   2.187 -0.0641  0.6235  0.1584
  124ILE      N  103   2.596   2.557   2.371 -0.2923  0.2338 -0.3976
  124ILE      H  104   2.529   2.502   2.422 -0.3815  1.0409  0.3719
  124ILE     CA  105   2.739   2.573   2.420  0.0135  0.7179  0.1690
  124ILE     HA  106   2.806   2.605   2.339  0.3727  1.7535  0.8541
  124ILE     CB  107   2.746   2.678   2.530 -0.6803 -0.3499 -0.5143
  124ILE     HB  108   2.849   2.688   2.564 -0.4015  0.8409 -1.6357
  124ILE    CG1  109   2.679   2.638   2.658 -0.3494 -0.0727  0.0174
  124ILE   HG11  110   2.575   2.658   2.628  0.6112  1.0100 -3.0420
  124ILE   HG12  111   2.678   2.534   2.689 -0.7720  0.5361  2.2047
  124ILE    CG2  112   2.722   2.819   2.478 -0.7947 -0.2134  0.4299
  124ILE   HG21  113   2.745   2.898   2.549 -1.1105  0.6445 -0.3976
  124ILE   HG22  114   2.785   2.828   2.390 -0.3267 -0.9456  0.6798
  124ILE   HG23  115   2.619   2.839   2.447 -0.2168  0.0168 -1.4770
  124ILE     CD  116   2.733   2.724   2.777 -0.4384  0.1726 -0.8097
  124ILE    HD1  117   2.725   2.832   2.769 -0.6792  0.3185  0.9523
  124ILE    HD2  118   2.690   2.693   2.872  0.3307 -0.8761 -0.7889
  124ILE    HD3  119   2.839   2.704   2.785 -0.4720  0.4494  0.4159
  124ILE      C  120   2.799   2.433   2.447  0.6494 -0.3892  0.0281
  124ILE      O  121   2.918   2.413   2.438  0.4664  0.1244 -0.2892
  125ARG      N  122   2.707   2.333   2.458  0.0573 -0.6908 -0.2266
  125ARG      H  123   2.610   2.348   2.435 -0.4461  1.0326  2.5884
  125ARG     CA  124   2.747   2.197   2.477 -0.4382  0.6380 -0.7107
  125ARG     HA  125   2.816   2.190   2.561  0.9127  0.0846 -1.8231
  125ARG     CB  126   2.624   2.109   2.507  0.1175 -0.6578  0.1984
  125ARG    HB1  127   2.544   2.152   2.446 -0.4621 -2.9441 -0.7402
  125ARG    HB2  128   2.636   2.002   2.494 -1.1485 -0.9973  1.4642
  125ARG     CG  129   2.593   2.107   2.659  0.1757  0.1111  0.2506
  125ARG    HG1  130   2.685   2.095   2.715 -1.0758 -1.7745  2.0454
  125ARG    HG2  131   2.562   2.206   2.693  0.5090  0.1671  0.3950
  125ARG     CD  132   2.498   1.995   2.703 -0.5555 -0.0779  0.6566
  125ARG    HD1  133   2.443   1.979   2.610  1.4211 -0.6642 -0.4691
  125ARG    HD2  134   2.544   1.901   2.735 -1.6494 -0.4580  1.1733
  125ARG     NE  135   2.419   2.042   2.819  0.2006 -0.2770  0.2207
  125ARG     HE  136   2.473   2.050   2.905  0.2506  1.8859  0.0409
  125ARG     CZ  137   2.294   2.087   2.815  0.4976  0.7088  0.4508
  125ARG    NH1  138   2.224   2.076   2.702  0.1014 -0.6336  0.2203
  125ARG   HH11  139   2.259   2.038   2.615  1.3136  1.6144 -0.3215
  125ARG   HH12  140   2.131   2.115   2.708  0.4815  0.2033  0.9384
  125ARG    NH2  141   2.225   2.129   2.922 -0.1155  0.2269 -0.1087
  125ARG   HH21  142   2.250   2.127   3.020 -0.4436  1.8839  0.0322
  125ARG   HH22  143   2.130   2.156   2.904 -1.2035 -1.6546  2.2342
  125ARG      C  144   2.808   2.144   2.347  0.0455  0.3628  0.3542
  125ARG      O  145   2.740   2.137   2.244  0.1058 -0.0921  0.1022
  126GLY      N  146   2.940   2.106   2.343  0.5831  0.3224  0.0309
  126GLY      H  147   2.998   2.119   2.426  2.6333  0.5423 -1.3519
  126GLY     CA  148   3.010   2.060   2.220  0.0070  0.2979  0.1565
  126GLY    HA1  149   3.053   1.960   2.231 -0.7649 -0.1160 -0.5218
  126GLY    HA2  150   2.932   2.068   2.145 -1.0933  2.0979  1.4011
  126GLY      C  151   3.116   2.157   2.170 -0.5093  0.1435 -0.9913
  126GLY      O  152   3.183   2.135   2.077 -0.9368 -0.2336 -0.2327
  127CYS      N  153   3.130   2.273   2.236  0.1861 -0.0342  0.3638
  127CYS      H  154   3.069   2.286   2.315 -0.0463 -0.4914  0.2673
  127CYS     CA  155   3.208   2.388   2.194  0.0409  0.3315  0.2583
  127CYS     HA  156   3.265   2.372   2.103  0.2775 -1.9228  0.7247
  127CYS     CB  157   3.118   2.512   2.182  0.1231  0.1439 -0.1494
  127CYS    HB1  158   3.074   2.534   2.279 -1.3955 -0.6536 -0.6311
  127CYS    HB2  159   3.189   2.591   2.160  1.4696 -0.6751  1.0440
  127CYS     SG  160   2.987   2.489   2.058 -0.4136  0.0720  0.3983
  127CYS     HG  161   2.984   2.358   2.086 -0.7448  0.0993  0.4937
  127CYS      C  162   3.321   2.412   2.300 -0.1964 -0.0375  0.7255
  127CYS      O  163   3.290   2.416   2.422 -0.0111  0.3252 -0.1556
  128ARG      N  164   3.450   2.428   2.260 -0.1945 -0.2836  0.2126
  128ARG      H  165   3.479   2.441   2.164  0.4517  3.9943  0.8007
  128ARG     CA  166   3.554   2.458   2.359  0.7089  0.1514 -0.4095
  128ARG     HA  167   3.542   2.406   2.453  1.9400 -1.7473 -1.2440
  128ARG     CB  168   3.685   2.409   2.306 -0.0395 -0.0824 -0.2674
  128ARG    HB1  169   3.693   2.447   2.205  1.6602 -0.0872 -0.1660
  128ARG    HB2  170   3.773   2.456   2.352  0.4804 -0.1266 -1.1910
  128ARG     CG  171   3.715   2.260   2.322 -0.4525 -0.2602 -0.3549
  128ARG    HG1  172   3.628   2.196   2.307 -0.1501 -0.4455 -1.4171
  128ARG    HG2  173   3.787   2.231   2.246 -1.0952 -2.5048 -0.1845
  128ARG     CD  174   3.782   2.228   2.453  0.0775 -0.1331  0.0459
  128ARG    HD1  175   3.721   2.253   2.539 -0.9965  0.0505 -0.7496
  128ARG    HD2  176   3.777   2.120   2.461 -1.1232 -0.1371 -0.5086
  128ARG     NE  177   3.922   2.282   2.461 -0.1886  0.2495 -0.1742
  128ARG     HE  178   3.987   2.239   2.398  0.5456  0.9370  0.1014
  128ARG     CZ  179   3.968   2.381   2.548 -0.5196  0.4541  0.5296
  128ARG    NH1  180   3.886   2.452   2.626  0.5936 -0.2146 -0.0535
  128ARG   HH11  181   3.790   2.431   2.651  1.5682 -1.0736  3.6700
  128ARG   HH12  182   3.918   2.532   2.679 -1.6781  0.8961 -0.2515
  128ARG    NH2  183   4.099   2.407   2.545  0.7166  0.2270  0.0914
  128ARG   HH21  184   4.164   2.359   2.485  1.8261  0.8487  0.7577
  128ARG   HH22  185   4.135   2.497   2.573 -0.4827  0.6920  0.1698
  128ARG      C  186   3.568   2.611   2.377  0.3295 -0.1217  0.5176
  128ARG      O  187   3.626   2.683   2.293 -0.3825  0.1064 -0.4568
  129LEU      N  188   3.504   2.664   2.481 -0.1429 -0.0955 -0.4813
  129LEU      H  189   3.464   2.599   2.547  1.6851  0.1212  0.8870
  129LEU     CA  190   3.497   2.796   2.531  0.5450  0.5092  0.0583
  129LEU     HA  191   3.532   2.871   2.459  0.5583 -0.0815 -0.5593
  129LEU     CB  192   3.353   2.812   2.589 -0.9144 -0.6521  0.2839
  129LEU    HB1  193   3.325   2.717   2.634  0.4866 -1.3677 -0.2842
  129LEU    HB2  194   3.355   2.881   2.673  1.4025 -0.1587 -0.0945
  129LEU     CG  195   3.244   2.863   2.489 -0.8671 -0.6319 -0.0910
  129LEU     HG  196   3.262   2.967   2.462 -0.2605 -0.4709  0.8695
  129LEU    CD1  197   3.253   2.782   2.357 -0.1022  0.7140 -0.0927
  129LEU   HD11  198   3.347   2.818   2.314 -0.2364 -0.2317 -1.2247
  129LEU   HD12  199   3.262   2.676   2.382 -1.0804  0.7863  0.6212
  129LEU   HD13  200   3.173   2.790   2.284 -2.9053  1.3745  2.8214
  129LEU    CD2  201   3.104   2.867   2.545 -0.3982  0.0812  0.6571
  129LEU   HD21  202   3.098   2.939   2.626 -1.6043  1.2261 -0.4151
  129LEU   HD22  203   3.036   2.902   2.467  2.2169  1.1771 -1.2583
  129LEU   HD23  204   3.074   2.768   2.579  0.9702 -0.4572  0.3828
  129LEU      C  205   3.595   2.796   2.648 -0.2425  0.2924 -0.4505
  129LEU     O1  206   3.571   2.718   2.749 -0.2070  0.0747 -0.0236
  129LEU     O2  207   3.701   2.869   2.645  0.5374  0.0329 -0.5894
  130SOL     OW  208   4.697   1.267   4.226 -0.3079  0.0040 -0.5213
  130SOL    HW1  209   4.709   1.188   4.166  1.9654 -0.5163  0.5302
  130SOL    HW2  210   4.737   1.348   4.183  2.4275 -0.6154  0.7037
  131SOL     OW  211   0.246   1.622   1.445 -0.8795  0.3930  0.5934
  131SOL    HW1  212   0.184   1.556   1.489 -1.1633  1.2776  1.5738
  131SOL    HW2  213   0.339   1.607   1.479 -0.7787 -0.0884  0.1160
  132SOL     OW  214   0.134   0.392   0.175 -0.1524 -0.3244  0.1101
  132SOL    HW1  215   0.083   0.456   0.232  0.0535 -0.6544  0.6663
  132SOL    HW2  216   0.106   0.299   0.197 -0.5897 -0.4306 -0.8303
  133SOL     OW  217   4.350   2.493   0.501 -0.1906  0.0671  0.0371
  133SOL    HW1  218   4.311   2.554   0.432  0.6027 -1.0762 -1.4787
  133SOL    HW2  219   4.352   2.399   0.466  0.1289 -0.5739  1.6691
  134SOL     OW  220   0.908   0.874   2.209 -0.5975  0.3563  0.4414
  134SOL    HW1  221   0.986   0.932   2.230  0.1346 -0.2434 -0.4910
  134SOL    HW2  222   0.861   0.909   2.128 -0.2184 -0.2519 -0.0597
  135SOL     OW  223   3.074   4.313   1.066  0.0404  0.5436  0.1924
  135SOL    HW1  224   3.121   4.236   1.022  1.6487  1.9155 -0.6196
  135SOL    HW2  225   3.140   4.385   1.085 -1.3131  1.4799  1.5526
  136SOL     OW  226   1.897   3.813   0.584  0.5560  0.7853 -0.2386
  136SOL    HW1  227   1.966   3.740   0.589  1.8456  2.0271  1.7914
  136SOL    HW2  228   1.944   3.901   0.577 -0.8591  1.5962  0.1863
  137SOL     OW  229   3.845   0.589   0.477 -0.0140  0.1099 -0.3457
  137SOL    HW1  230   3.810   0.581   0.571 -0.6320 -0.7721 -0.6320
  137SOL    HW2  231   3.917   0.657   0.474 -2.2771  2.7072  0.1228
  138SOL     OW  232   1.105   0.176   2.329  0.0995 -0.1075 -0.0078
  138SOL    HW1  233   1.024   0.144   2.280  0.0303 -0.6626  0.4575
  138SOL    HW2  234   1.079   0.208   2.420  0.3225  0.2865 -0.0782
  139SOL     OW  235   0.576   3.896   4.946 -0.0762 -0.3343 -0.0616
  139SOL    HW1  236   0.645   3.915   4.876  0.0069 -0.3882  0.0051
  139SOL    HW2  237   0.615   3.914   5.036  0.3051 -1.6744  0.0579
  140SOL     OW  238   0.412   0.181   2.924  0.2264  0.1560 -0.3301
  140SOL    HW1  239   0.474   0.112   2.890  0.5244  1.6186 -3.0536
  140SOL    HW2  240   0.451   0.225   3.005  1.3676 -0.8526 -0.3113
  141SOL     OW  241   4.295   0.849   0.648  0.0140  0.0045 -0.1342
  141SOL    HW1  242   4.337   0.770   0.603  0.6716  1.1676 -1.6639
  141SOL    HW2  243   4.365   0.919   0.662 -1.1028  1.4375 -1.4508
  142SOL     OW  244   0.779   0.007   0.461 -0.0866  0.1512  0.2552
  142SOL    HW1  245   0.735   0.063   0.391 -0.2507 -0.1378  0.1261
  142SOL    HW2  246   0.787  -0.088   0.428 -2.4740 -0.5885  1.5960
  143SOL     OW  247   1.819   4.105   0.881  0.6480 -0.1581  0.1482
  143SOL    HW1  248   1.872   4.172   0.830 -0.4747  0.8642  0.2687
  143SOL    HW2  249   1.723   4.111   0.853  0.2479 -0.5488  1.3705
  144SOL     OW  250   1.765   0.661   2.457  0.3122  0.2380 -0.0450
  144SOL    HW1  251   1.722   0.707   2.535 -0.7773 -0.4171 -0.2386
  144SOL    HW2  252   1.734   0.703   2.372  2.8136  2.0963 -0.1629
  145SOL     OW  253   4.016   1.243   0.955 -0.1654 -0.2390 -0.3055
  145SOL    HW1  254   4.033   1.146   0.942 -1.5372 -0.6212  0.5003
  145SOL    HW2  255   3.921   1.264   0.929  0.2508  0.9788 -0.9236
  146SOL     OW  256   2.761   0.752   0.723 -0.2221  0.2270 -1.0360
  146SOL    HW1  257   2.788   0.824   0.787  1.2115 -1.4003  0.2948
  146SOL    HW2  258   2.677   0.779   0.676  0.3690  2.8198 -0.7430
  147SOL     OW  259   0.341   4.622   0.065 -0.1149  0.2853  0.1121
  147SOL    HW1  260   0.361   4.668   0.152  1.3317  1.4548 -0.7986
  147SOL    HW2  261   0.287   4.682   0.007 -0.0456 -0.0066 -0.2576
  148SOL     OW  262   2.390   5.008   0.953  0.3210 -0.1800  0.1393
  148SOL    HW1  263   2.342   4.947   0.891 -0.2167 -0.8954  1.2317
  148SOL    HW2  264   2.327   5.041   1.023  1.1009 -0.0456  0.7951
  149SOL     OW  265   1.271   1.907   0.652 -0.4100 -0.2925  0.4059
  149SOL    HW1  266   1.283   1.889   0.749 -0.6447 -0.1582  0.4612
  149SOL    HW2  267   1.329   1.845   0.599  2.5285  2.0383  0.6924
  150SOL     OW  268   2.749   1.009   0.457 -0.4427  0.2020 -0.7756
  150SOL    HW1  269   2.844   1.039   0.464 -0.2846 -0.4113 -0.1913
  150SOL    HW2  270   2.735   0.961   0.371 -0.7820  2.1856 -1.8904
  151SOL     OW  271   3.670   0.561   1.005 -0.6567  0.2329 -0.2693
  151SOL    HW1  272   3.604   0.487   1.018 -0.2758 -0.2709 -1.1215
  151SOL    HW2  273   3.748   0.547   1.066 -0.4428 -0.2445 -0.6461
  152SOL     OW  274   0.197   1.392   1.808 -0.5638 -0.7388  0.0137
  152SOL    HW1  275   0.187   1.411   1.906 -1.5311  2.0654 -0.5401
  152SOL    HW2  276   0.113   1.415   1.760  1.0925  1.9745 -1.9376
  153SOL     OW  277   0.399   4.957   0.517  0.2231  0.2219 -0.0143
  153SOL    HW1  278   0.450   4.891   0.573  2.2549  1.3057 -0.4693
  153SOL    HW2  279   0.432   5.049   0.537 -0.8493  0.8682 -1.1208
  154SOL     OW  280   0.007   4.495   0.457 -0.3545  0.2858  0.2525
  154SOL    HW1  281   0.009   4.403   0.418  1.0259 -0.1262  1.2086
  154SOL    HW2  282   0.037   4.561   0.389 -1.7526  0.1053 -0.5728
  155SOL     OW  283   2.656   0.160   1.505 -0.1277  0.2297  0.6952
  155SOL    HW1  284   2.631   0.239   1.448  0.4430  1.1705  1.7028
  155SOL    HW2  285   2.596   0.083   1.483 -1.1409  1.1376  0.1379
  156SOL     OW  286   1.418   0.870   2.458  0.0653  0.2312  0.3807
  156SOL    HW1  287   1.499   0.902   2.408 -0.5711  0.0668 -0.7970
  156SOL    HW2  288   1.349   0.943   2.457 -0.2354 -0.0553  0.3669
  157SOL     OW  289   4.463   2.420   1.627  0.6108 -0.5633 -0.3868
  157SOL    HW1  290   4.421   2.343   1.579 -0.8417 -0.0169 -0.0296
  157SOL    HW2  291   4.443   2.413   1.725  0.0612  0.5253 -0.4140
  158SOL     OW  292   4.915   1.753   4.102  0.2332  0.1117 -0.3273
  158SOL    HW1  293   4.870   1.804   4.176 -0.1923  0.6768 -0.9572
  158SOL    HW2  294   4.973   1.682   4.141  0.6365  0.9133  0.5770
  159SOL     OW  295   2.810   0.577   1.455 -0.3515 -0.1985 -0.2236
  159SOL    HW1  296   2.867   0.623   1.387 -0.3227  0.0439 -0.0368
  159SOL    HW2  297   2.856   0.577   1.544 -0.5931 -0.1012 -0.0974
  160SOL     OW  298   0.359   4.927   4.590 -0.3413 -0.2155 -0.0168
  160SOL    HW1  299   0.289   4.972   4.645  2.3291  2.6192  1.3565
  160SOL    HW2  300   0.393   4.845   4.637 -0.6838  0.0723  0.7275
  161SOL     OW  301   3.845   1.907   1.716 -0.1071 -0.2488  0.0361
  161SOL    HW1  302   3.805   1.868   1.633 -0.4235  1.2476 -0.5417
  161SOL    HW2  303   3.866   1.833   1.780 -3.9257 -1.1706  0.4526
  162SOL     OW  304   0.872   4.715   0.379 -0.0590 -0.5128 -0.1842
  162SOL    HW1  305   0.924   4.630   0.385 -1.0019 -1.1759 -1.0119
  162SOL    HW2  306   0.836   4.726   0.287  1.5892  1.7605 -0.6525
  163SOL     OW  307   2.472   2.179   1.644  0.3125  0.4314 -0.2264
  163SOL    HW1  308   2.471   2.195   1.742 -0.8796 -3.5303  0.5878
  163SOL    HW2  309   2.558   2.134   1.619 -0.2957 -0.5629 -0.5637
  164SOL     OW  310   0.207   5.024   3.008 -0.2743  0.2813 -0.3683
  164SOL    HW1  311   0.265   5.104   2.995 -1.0722  0.7766 -0.9787
  164SOL    HW2  312   0.244   4.947   2.955 -0.3469  0.6841 -1.0228
  165SOL     OW  313   1.739   0.818   1.144 -0.1323 -0.1631  0.0331
  165SOL    HW1  314   1.655   0.784   1.185 -0.1058 -0.3892 -0.0995
  165SOL    HW2  315   1.726   0.912   1.113  0.0754  0.3069  1.2757
  166SOL     OW  316   0.997   1.060   4.904 -0.4158 -0.4800 -0.3107
  166SOL    HW1  317   0.923   1.015   4.856  0.9986 -2.5240 -0.6827
  166SOL    HW2  318   1.057   0.992   4.945  1.1167  1.1150  0.2336
  167SOL     OW  319   0.762   0.715   4.409  0.1817  0.0089 -0.3247
  167SOL    HW1  320   0.834   0.763   4.459  0.7470 -0.2308 -0.8975
  167SOL    HW2  321   0.676   0.725   4.458 -0.1224  3.0246 -1.2617
  168SOL     OW  322   1.122   3.346   0.877  0.2806 -0.1538 -0.2745
  168SOL    HW1  323   1.215   3.381   0.867  0.2559 -0.1139 -0.3641
  168SOL    HW2  324   1.080   3.335   0.787 -0.1406  0.7397 -0.1969
  169SOL     OW  325   0.347   0.058   1.388  0.2042 -0.2567 -0.1160
  169SOL    HW1  326   0.417   0.092   1.326  0.5838 -0.1602  0.3596
  169SOL    HW2  327   0.380   0.064   1.483  1.0186 -3.4912 -0.0508
  170SOL     OW  328   1.165   0.725   2.871  0.1593  0.3034 -0.1443
  170SOL    HW1  329   1.252   0.773   2.862  1.4393 -1.8382  0.1118
  170SOL    HW2  330   1.116   0.760   2.952  2.2231 -0.5085  1.5427
  171SOL     OW  331   1.453   1.367   3.320  0.1470 -0.8417  0.3636
  171SOL    HW1  332   1.451   1.269   3.341  2.2895 -1.5507 -2.1409
  171SOL    HW2  333   1.538   1.388   3.272 -0.9123  2.0087 -0.4196
  172SOL     OW  334   1.234   1.264   1.841  0.2761 -0.0741 -0.1894
  172SOL    HW1  335   1.251   1.337   1.774 -0.6606  1.5128  1.2093
  172SOL    HW2  336   1.318   1.247   1.893  0.0169  1.4293  0.7735
  173SOL     OW  337   3.355   0.527   2.096 -0.5119  0.8473 -0.1581
  173SOL    HW1  338   3.380   0.590   2.169  0.2946  0.6717 -0.2739
  173SOL    HW2  339   3.275   0.562   2.048  0.0739  1.9137 -0.3853
  174SOL     OW  340   1.996   3.942   4.798 -0.2915 -0.1531  0.3876
  174SOL    HW1  341   1.967   3.884   4.721 -1.6585  2.3166 -1.0869
  174SOL    HW2  342   1.952   3.910   4.882 -2.6686 -0.0687 -0.7500
  175SOL     OW  343   0.446   4.498   1.284 -0.2037 -0.1951 -0.2222
  175SOL    HW1  344   0.444   4.398   1.277 -0.5373 -0.0979 -2.3307
  175SOL    HW2  345   0.352   4.533   1.283 -0.0601  0.2140 -1.8006
  176SOL     OW  346   4.968   1.933   1.526 -0.0288 -0.3205  0.1915
  176SOL    HW1  347   4.964   2.031   1.544  1.2870 -0.1101 -0.5336
  176SOL    HW2  348   4.986   1.884   1.611 -1.1922  0.0063  0.6447
  177SOL     OW  349   0.239   4.333   4.016 -0.1027  0.7480  0.9804
  177SOL    HW1  350   0.195   4.326   3.927 -0.4895  1.8945  1.0577
  177SOL    HW2  351   0.253   4.430   4.038  1.6498  0.4370  1.3578
  178SOL     OW  352   3.598   0.838   3.015  0.2732 -0.3726 -0.0874
  178SOL    HW1  353   3.681   0.889   3.035  2.0764 -2.3368 -2.1193
  178SOL    HW2  354   3.590   0.760   3.077  0.7359 -0.9737 -0.7621
  179SOL     OW  355   2.273   0.337   2.383  0.5910 -0.2381  0.2196
  179SOL    HW1  356   2.364   0.298   2.378  0.1446 -1.8319  2.9303
  179SOL    HW2  357   2.254   0.368   2.476 -1.8242 -0.4640 -0.1187
  180SOL     OW  358   0.395   0.316   3.805  0.3115 -0.3809  0.3595
  180SOL    HW1  359   0.406   0.230   3.856 -0.3297 -1.0543 -0.6060
  180SOL    HW2  360   0.407   0.298   3.707  1.0766  0.8127  0.2179
  181SOL     OW  361   0.572   4.634   4.971 -0.5413  0.1365 -0.1725
  181SOL    HW1  362   0.636   4.695   5.017  1.1489 -0.2824 -1.8043
  181SOL    HW2  363   0.489   4.625   5.025  1.0721  0.0765  2.4767
  182SOL     OW  364   2.364   1.728   1.853 -0.0509 -0.3709  0.0200
  182SOL    HW1  365   2.332   1.655   1.913 -1.3531  0.0679 -0.1110
  182SOL    HW2  366   2.285   1.776   1.814  0.7808  0.7231 -0.3604
  183SOL     OW  367   1.142   4.836   0.422  0.2119 -0.3128  0.9514
  183SOL    HW1  368   1.113   4.931   0.411  1.4628  0.0007  0.0787
  183SOL    HW2  369   1.062   4.777   0.432 -0.5974  0.7777  1.0365
  184SOL     OW  370   2.277   1.557   2.045  0.0953 -0.1446 -0.1629
  184SOL    HW1  371   2.370   1.564   2.081  0.5855 -1.9080 -1.0104
  184SOL    HW2  372   2.211   1.571   2.120  0.7851  5.1855 -0.1049
  185SOL     OW  373   0.511   0.332   0.575  0.0198  0.5435  0.4677
  185SOL    HW1  374   0.498   0.362   0.670 -1.6239  0.6072  0.2521
  185SOL    HW2  375   0.589   0.382   0.535  1.6539 -0.5145  2.1688
  186SOL     OW  376   1.190   0.624   1.256  0.4920  0.2059 -0.0779
  186SOL    HW1  377   1.244   0.694   1.303 -0.4759  2.5877 -2.2810
  186SOL    HW2  378   1.096   0.656   1.243 -0.2184 -1.8373 -0.5325
  187SOL     OW  379   0.245   2.936   0.144  0.3699 -0.2243 -0.2902
  187SOL    HW1  380   0.272   2.995   0.067 -0.4983  0.4381 -0.1008
  187SOL    HW2  381   0.166   2.881   0.117  0.6035 -0.6382 -0.1496
  188SOL     OW  382   4.544   3.366   4.412  0.4626  0.7897  0.4918
  188SOL    HW1  383   4.587   3.408   4.332  0.0666  1.7265  0.7491
  188SOL    HW2  384   4.609   3.304   4.456  0.1778 -0.9460 -1.4026
  189SOL     OW  385   4.204   0.912   2.064 -0.5824  0.3175  0.5143
  189SOL    HW1  386   4.167   0.830   2.109  0.6853 -0.8094 -0.4514
  189SOL    HW2  387   4.262   0.961   2.129 -0.3218 -0.2387  0.7117
  190SOL     OW  388   4.213   3.333   2.936 -0.4283  0.0312 -0.9814
  190SOL    HW1  389   4.248   3.423   2.961  0.5958 -0.5358 -0.3038
  190SOL    HW2  390   4.290   3.273   2.912 -1.0249 -0.9089 -0.6011
  191SOL     OW  391   1.309   1.729   4.856 -0.3556  0.1975  0.0434
  191SOL    HW1  392   1.294   1.664   4.781 -1.7805 -0.7333  1.0699
  191SOL    HW2  393   1.323   1.678   4.941  0.8569  1.2436  0.4872
  192SOL     OW  394   3.265   4.352   0.806  0.2357  0.5151 -0.2117
  192SOL    HW1  395   3.341   4.384   0.862 -1.6371 -0.0018  2.8931
  192SOL    HW2  396   3.222   4.429   0.759 -0.3199  1.6587  2.0409
  193SOL     OW  397   4.473   2.200   1.455 -0.0425  0.5613  0.4660
  193SOL    HW1  398   4.527   2.117   1.467 -0.2850  0.5456  1.5896
  193SOL    HW2  399   4.404   2.185   1.385  2.2784  1.0471 -2.0753
  194SOL     OW  400   4.918   2.805   1.975 -0.1371  0.7421  0.0857
  194SOL    HW1  401   5.013   2.833   1.967 -0.5900  1.9994 -1.5903
  194SOL    HW2  402   4.903   2.720   1.924  0.2839 -0.0570  1.2617
  195SOL     OW  403   4.834   0.429   0.011 -0.0499 -0.1086 -0.7150
  195SOL    HW1  404   4.742   0.412  -0.023 -0.3919  2.5749 -1.2984
  195SOL    HW2  405   4.837   0.415   0.110 -1.6082  1.6286 -0.3882
  196SOL     OW  406   1.997   3.600   2.023  0.4107  0.3869  0.3217
  196SOL    HW1  407   2.094   3.601   1.999  0.8987  0.9991  2.1223
  196SOL    HW2  408   1.955   3.686   1.993  0.5938  0.4117  0.1328
  197SOL     OW  409   1.047   0.550   4.133 -0.1021 -0.2094 -0.0521
  197SOL    HW1  410   0.970   0.537   4.195 -0.5106 -0.6724 -0.6481
  197SOL    HW2  411   1.042   0.640   4.090 -0.9381 -0.6630 -0.9354
  198SOL     OW  412   1.684   4.399   0.938  0.4738 -0.0361 -0.4110
  198SOL    HW1  413   1.661   4.476   0.996  1.3015 -0.2912  0.2840
  198SOL    HW2  414   1.775   4.414   0.898  0.6238 -0.6338 -0.3006
  199SOL     OW  415   0.428   3.411   1.473 -0.1336  0.4392  0.1083
  199SOL    HW1  416   0.338   3.412   1.428  0.0418  0.8200 -0.2418
  199SOL    HW2  417   0.485   3.340   1.431 -0.2110  0.3205  0.2057
  200SOL     OW  418   1.938   1.361   2.616  0.4284 -0.1374  0.5705
  200SOL    HW1  419   1.993   1.309   2.550  0.6173  0.3450  0.3387
  200SOL    HW2  420   1.999   1.413   2.676  0.2339  0.2334  0.4504
  201SOL     OW  421   0.559   0.642   1.377 -0.2117  0.4214 -0.0323
  201SOL    HW1  422   0.649   0.628   1.419 -1.1569  0.3052  2.0328
  201SOL    HW2  423   0.523   0.731   1.405 -1.4367 -0.2287  0.5012
  202SOL     OW  424   0.385   2.088   0.021 -0.2110 -0.6883 -0.1904
  202SOL    HW1  425   0.376   2.030   0.102  0.5537 -0.0007  0.3930
  202SOL    HW2  426   0.472   2.068  -0.024 -0.1575 -0.3154 -0.2502
  203SOL     OW  427   4.069   3.813   3.326  0.1974 -0.3752 -0.2328
  203SOL    HW1  428   4.048   3.733   3.271  0.5855 -0.6539  0.0239
  203SOL    HW2  429   4.129   3.874   3.275  2.9121 -1.9610  0.8879
  204SOL     OW  430   1.814   0.583   0.971  0.1634  0.4598  0.6314
  204SOL    HW1  431   1.755   0.655   1.007  1.1269  1.9404 -0.6403
  204SOL    HW2  432   1.907   0.618   0.960  0.2535 -0.3465 -1.8466
  205SOL     OW  433   4.265   4.441   4.482  0.8252 -0.3593 -0.8076
  205SOL    HW1  434   4.265   4.426   4.581  1.3164  0.2743 -0.7073
  205SOL    HW2  435   4.207   4.371   4.439 -1.7531  1.0251  0.1720
  206SOL     OW  436   4.873   0.620   0.517 -0.1833  0.2263 -0.0543
  206SOL    HW1  437   4.846   0.708   0.556 -2.2147 -0.6438  0.6202
  206SOL    HW2  438   4.882   0.553   0.591  1.8495 -0.0624 -0.4976
  207SOL     OW  439   1.107   4.960   4.938  0.2710  0.7524 -0.0783
  207SOL    HW1  440   1.056   5.045   4.924  1.8191  1.9464  1.1697
  207SOL    HW2  441   1.168   4.946   4.860  0.0133  0.7969 -0.2890
  208SOL     OW  442   0.234   1.152   1.532 -0.1533 -0.6699  0.2819
  208SOL    HW1  443   0.283   1.132   1.617  0.4365  1.8292  0.6289
  208SOL    HW2  444   0.299   1.177   1.461 -0.6503 -2.6595 -0.9523
  209SOL     OW  445   1.241   4.537   1.595  0.2047  0.0325  0.7102
  209SOL    HW1  446   1.180   4.551   1.673 -0.1940 -1.1544  0.6210
  209SOL    HW2  447   1.194   4.486   1.524  1.1633 -0.5216  0.4580
  210SOL     OW  448   4.608   2.514   4.234  0.4240 -0.0405  0.0732
  210SOL    HW1  449   4.525   2.527   4.180  0.0292  0.7156  0.8445
  210SOL    HW2  450   4.586   2.462   4.317 -0.4182  4.1654  2.8190
  211SOL     OW  451   0.297   1.286   2.994 -0.3075  0.1032  0.0326
  211SOL    HW1  452   0.276   1.358   3.060  1.2231  0.4265  0.2058
  211SOL    HW2  453   0.377   1.234   3.026  0.9333  0.7369 -1.9035
  212SOL     OW  454   4.325   0.357   2.952  0.4030  0.4469 -0.5979
  212SOL    HW1  455   4.273   0.393   2.875  0.1395 -0.3853 -0.8245
  212SOL    HW2  456   4.286   0.269   2.980  1.7313 -0.2395 -0.8218
  213SOL     OW  457   1.434   1.602   0.827 -0.3732 -0.0047  0.2500
  213SOL    HW1  458   1.427   1.529   0.759 -0.6477  0.4503 -0.2127
  213SOL    HW2  459   1.383   1.575   0.909 -1.5949  0.2198 -0.4135
  214SOL     OW  460   3.743   0.090   2.145 -0.5161 -0.2754 -0.4878
  214SOL    HW1  461   3.653   0.134   2.143  0.0095  0.8025 -0.8936
  214SOL    HW2  462   3.766   0.055   2.054 -0.9302 -1.4475 -0.1715
  215SOL     OW  463   1.336   4.295   2.306 -0.5272  0.4288 -0.3790
  215SOL    HW1  464   1.298   4.294   2.213 -0.9757  0.7710 -0.2014
  215SOL    HW2  465   1.321   4.385   2.347 -2.9721 -0.5930  1.1070
  216SOL     OW  466   0.879   1.916   4.981  0.0078 -0.5486  0.8904
  216SOL    HW1  467   0.901   1.890   5.075  0.2209 -0.2768  0.9169
  216SOL    HW2  468   0.954   1.969   4.942  0.1404 -1.0959  0.3904
  217SOL     OW  469   0.521   4.757   0.677  0.6825 -0.6719 -0.3216
  217SOL    HW1  470   0.578   4.750   0.759 -1.8836 -0.2353  1.6161
  217SOL    HW2  471   0.548   4.686   0.612  3.6738 -0.1894  0.2511
  218SOL     OW  472   1.686   0.528   4.409 -0.1839 -0.3429 -0.2039
  218SOL    HW1  473   1.695   0.507   4.311 -1.9420  0.5959 -0.6171
  218SOL    HW2  474   1.601   0.579   4.424  0.2234 -0.1749  1.7842
  219SOL     OW  475   4.773   1.582   3.481  0.1051  0.3521 -0.3331
  219SOL    HW1  476   4.684   1.568   3.524  0.4118  0.1370  0.2383
  219SOL    HW2  477   4.843   1.593   3.552  0.5104  0.6636 -0.7784
  220SOL     OW  478   4.455   4.963   0.011 -0.1513  0.2982 -0.5016
  220SOL    HW1  479   4.464   5.036   0.078 -0.5984  0.9419 -1.1265
  220SOL    HW2  480   4.359   4.940  -0.001  0.0517 -2.6948  2.0724
  221SOL     OW  481   2.069   1.218   0.604  0.1975 -0.3046  0.0472
  221SOL    HW1  482   2.079   1.130   0.558  1.1434  0.0857 -0.5232
  221SOL    HW2  483   2.087   1.292   0.540 -0.2387  0.3080  0.6089
  222SOL     OW  484   3.976   0.938   0.140 -0.5593 -0.2952  0.2793
  222SOL    HW1  485   3.979   1.037   0.154 -0.1689 -0.2033 -0.4194
  222SOL    HW2  486   3.937   0.894   0.221  0.5204  0.3117  1.1541
  223SOL     OW  487   1.098   1.052   2.197 -0.2532 -0.0587 -0.1816
  223SOL    HW1  488   1.161   1.036   2.274  0.3120 -1.6052 -0.9253
  223SOL    HW2  489   1.141   1.113   2.131 -1.0829  2.0221  1.0696
  224SOL     OW  490   4.772   3.516   2.096  0.1712  0.3590  0.1615
  224SOL    HW1  491   4.778   3.538   1.998 -1.1011  0.9118  0.1783
  224SOL    HW2  492   4.841   3.568   2.146  0.1576  0.8645 -0.3310
  225SOL     OW  493   1.524   4.885   2.058 -0.1099 -0.2279 -0.6507
  225SOL    HW1  494   1.531   4.970   2.111  1.4830 -0.4695 -0.4306
  225SOL    HW2  495   1.517   4.808   2.121 -0.7315 -0.3323 -0.8423
  226SOL     OW  496   0.603   0.771   0.907 -0.3484 -0.2594 -0.4380
  226SOL    HW1  497   0.686   0.798   0.956 -0.9256 -1.7480  1.4582
  226SOL    HW2  498   0.628   0.717   0.827  0.5133 -1.4093  0.5762
  227SOL     OW  499   2.630   0.387   1.373 -0.1636 -0.2255  0.5113
  227SOL    HW1  500   2.704   0.447   1.405  0.5539 -1.1674  0.6847
  227SOL    HW2  501   2.656   0.346   1.285  0.2628 -1.7864  1.3167
  228SOL     OW  502   2.283   3.692   1.259  0.2505 -0.6264 -0.2424
  228SOL    HW1  503   2.351   3.736   1.318  0.3994  0.9332 -1.5076
  228SOL    HW2  504   2.262   3.601   1.295  1.0433 -0.1181  1.6450
  229SOL     OW  505   4.878   4.201   2.146 -0.2540  0.0554  0.7321
  229SOL    HW1  506   4.817   4.259   2.198 -0.3884 -0.1615  0.8189
  229SOL    HW2  507   4.825   4.133   2.095 -0.0648 -0.3926  1.1248
  230SOL     OW  508   4.903   0.464   1.318 -0.0660 -0.3110  0.1010
  230SOL    HW1  509   4.936   0.483   1.410 -0.4916 -1.8238  0.6017
  230SOL    HW2  510   4.931   0.371   1.291 -0.4272 -0.1022 -1.0727
  231SOL     OW  511   4.107   1.617   2.347  0.1433 -0.4164  0.3212
  231SOL    HW1  512   4.123   1.665   2.261 -0.0511 -0.6207  0.1740
  231SOL    HW2  513   4.054   1.676   2.408  1.9019  0.5324  1.0456
  232SOL     OW  514   0.997   0.388   0.825 -0.3944  0.1354 -0.1612
  232SOL    HW1  515   1.027   0.300   0.788 -0.5262  0.2659 -0.5765
  232SOL    HW2  516   0.912   0.375   0.876 -0.8925  0.1660 -0.9619
  233SOL     OW  517   0.286   0.840   2.023 -0.1849 -0.1150  0.3014
  233SOL    HW1  518   0.269   0.938   2.033 -0.2679  0.0387 -1.1862
  233SOL    HW2  519   0.241   0.791   2.097 -0.4936  0.9277  0.8254
  234SOL     OW  520   4.074   1.735   0.222 -0.2377  0.3094  0.4283
  234SOL    HW1  521   4.145   1.805   0.228 -0.0920  0.0334  2.9767
  234SOL    HW2  522   3.987   1.777   0.196 -0.1161  1.4558  1.7567
  235SOL     OW  523   4.874   0.090   1.338  0.0681 -0.0341  0.6279
  235SOL    HW1  524   4.969   0.119   1.342  0.5535 -1.4375 -0.0097
  235SOL    HW2  525   4.836   0.111   1.248  0.5029 -1.5033  0.0668
  236SOL     OW  526   2.083   0.111   0.104  0.1409  0.0210  0.0558
  236SOL    HW1  527   2.057   0.170   0.180 -0.4359 -0.9632  0.6428
  236SOL    HW2  528   2.026   0.132   0.025  0.3465  0.6514  0.0671
  237SOL     OW  529   0.754   1.889   1.876  0.0937  0.0993 -0.3039
  237SOL    HW1  530   0.839   1.876   1.927 -0.4234  1.5764  1.0149
  237SOL    HW2  531   0.701   1.805   1.878  0.4723 -0.1305  0.8862
  238SOL     OW  532   0.452   0.435   0.862  0.2311 -0.1312 -0.0014
  238SOL    HW1  533   0.399   0.379   0.925  1.1529 -0.7377  0.2581
  238SOL    HW2  534   0.393   0.505   0.821 -0.3128  0.6126  1.9173
  239SOL     OW  535   0.240   0.355   0.502  0.3628 -0.5464 -0.5010
  239SOL    HW1  536   0.331   0.363   0.542  0.7618 -1.0524 -1.2739
  239SOL    HW2  537   0.204   0.446   0.482  1.2849 -0.3744 -1.4531
  240SOL     OW  538   4.770   1.097   2.552 -0.0930  0.0764 -0.3080
  240SOL    HW1  539   4.677   1.099   2.588 -0.8824 -0.3444 -2.1972
  240SOL    HW2  540   4.826   1.036   2.609 -1.1393 -0.2041  0.4608
  241SOL     OW  541   1.099   2.870   4.092  0.3191 -0.1524 -0.0927
  241SOL    HW1  542   1.081   2.901   4.185 -1.8953 -2.0469  0.1900
  241SOL    HW2  543   1.060   2.935   4.027 -0.6917 -0.2436  0.3983
  242SOL     OW  544   1.893   3.854   0.004 -0.2471  0.7712  0.3656
  242SOL    HW1  545   1.865   3.931   0.061 -1.3852 -0.0953  1.0329
  242SOL    HW2  546   1.928   3.780   0.063  0.3625  0.5772 -0.2241
  243SOL     OW  547   1.174   0.205   1.607  0.6340  0.0687  0.2477
  243SOL    HW1  548   1.273   0.205   1.622  0.2822 -0.4630  3.1784
  243SOL    HW2  549   1.146   0.117   1.568  1.1052 -0.6103  1.4024
  244SOL     OW  550   0.906   0.123   2.164  0.0596  0.6218  0.2136
  244SOL    HW1  551   0.886   0.219   2.148 -2.3710  0.2189  0.4627
  244SOL    HW2  552   0.904   0.073   2.077 -1.1201  0.4226  0.3388
  245SOL     OW  553   3.079   0.217   0.437 -0.1393 -0.2737  0.2318
  245SOL    HW1  554   3.177   0.233   0.447 -0.3457  0.0588  2.0787
  245SOL    HW2  555   3.047   0.260   0.353  1.3557 -0.7400 -0.6150
  246SOL     OW  556   0.291   0.338   1.085  0.1482 -0.3860  0.0544
  246SOL    HW1  557   0.367   0.339   1.150  0.5231 -2.2901 -0.2880
  246SOL    HW2  558   0.232   0.417   1.101 -0.3562 -1.2747  3.4253
  247SOL     OW  559   4.889   4.416   0.946 -0.1734 -0.0581  0.2448
  247SOL    HW1  560   4.973   4.381   0.987  1.6706  0.8690 -2.4613
  247SOL    HW2  561   4.911   4.482   0.875 -3.2102 -0.0917 -0.9058
  248SOL     OW  562   3.728   2.199   2.958 -0.8675 -0.3125  0.2993
  248SOL    HW1  563   3.782   2.283   2.960 -2.0520  0.4728  0.9525
  248SOL    HW2  564   3.725   2.163   2.865 -0.3580  0.3912  0.0062
  249SOL     OW  565   4.927   3.639   0.746 -0.4165 -0.2152 -0.0834
  249SOL    HW1  566   4.916   3.597   0.656  1.1099  0.9085 -0.8447
  249SOL    HW2  567   4.883   3.728   0.747 -2.9831 -1.3818  1.2861
  250SOL     OW  568   0.473   1.252   1.399  0.3986 -0.1533 -0.4447
  250SOL    HW1  569   0.551   1.191   1.413  0.8425  0.5709  0.3374
  250SOL    HW2  570   0.454   1.303   1.483  0.2753  1.0570 -1.1726
  251SOL     OW  571   4.767   1.036   4.076  0.0692 -0.2469 -0.3153
  251SOL    HW1  572   4.841   1.029   4.010 -0.1925 -0.5278 -0.5829
  251SOL    HW2  573   4.703   0.960   4.064  0.9438 -1.3119  1.4084
  252SOL     OW  574   1.887   4.595   0.030 -0.3151 -0.1994 -0.0593
  252SOL    HW1  575   1.959   4.559   0.089 -1.0605  0.5954  1.3936
  252SOL    HW2  576   1.923   4.670  -0.026  0.4616 -1.1300 -0.8285
  253SOL     OW  577   0.628   4.858   1.490 -0.0393  0.0824  0.9175
  253SOL    HW1  578   0.655   4.764   1.468 -0.1905 -0.3631  2.5457
  253SOL    HW2  579   0.529   4.863   1.500 -0.1549  0.6933 -0.3082
  254SOL     OW  580   4.881   3.271   0.445  0.0493 -0.1345 -0.1578
  254SOL    HW1  581   4.868   3.369   0.461 -2.5994 -0.6356  1.3995
  254SOL    HW2  582   4.792   3.225   0.448  1.3182 -2.7332  0.1467
  255SOL     OW  583   3.460   0.145   1.421  0.0472 -0.6242 -0.1271
  255SOL    HW1  584   3.429   0.155   1.327  0.2523  1.6425 -0.0123
  255SOL    HW2  585   3.394   0.187   1.483  1.9477  1.9260  0.3263
  256SOL     OW  586   0.155   0.697   1.423  0.6675  0.3063 -0.5198
  256SOL    HW1  587   0.235   0.752   1.405  1.1814  0.7607  2.5567
  256SOL    HW2  588   0.087   0.751   1.473  0.3651 -1.2335  0.8576
  257SOL     OW  589   0.425   4.524   0.403  0.3767  0.4964  0.6712
  257SOL    HW1  590   0.375   4.487   0.481  0.2855  0.7534  0.7366
  257SOL    HW2  591   0.522   4.533   0.427  0.8352 -1.7544 -0.0686
  258SOL     OW  592   1.087   0.580   4.491 -0.1142 -0.4847 -0.1451
  258SOL    HW1  593   1.140   0.525   4.426  1.5390  0.9227 -0.0701
  258SOL    HW2  594   1.030   0.521   4.547  0.5381 -1.9702 -1.0023
  259SOL     OW  595   1.511   1.283   1.401 -0.4697 -0.4232  0.2939
  259SOL    HW1  596   1.505   1.378   1.372 -0.0008 -0.5971 -0.3738
  259SOL    HW2  597   1.420   1.249   1.424 -0.7138  0.0036 -0.0458
  260SOL     OW  598   1.724   1.990   2.958 -0.7280 -0.1813  0.1271
  260SOL    HW1  599   1.783   1.991   3.039 -1.3152 -1.4465  0.5989
  260SOL    HW2  600   1.777   2.017   2.877 -0.5882  3.0974  1.1778
  261SOL     OW  601   3.168   1.392   2.892 -0.9366 -0.5649 -0.4381
  261SOL    HW1  602   3.187   1.313   2.950 -2.3657  0.1248  1.0505
  261SOL    HW2  603   3.103   1.452   2.939  0.2295  1.5796 -1.4481
  262SOL     OW  604   4.641   0.856   1.637  0.4162  0.5206 -0.3639
  262SOL    HW1  605   4.644   0.856   1.537  1.7937 -3.1042 -0.4613
  262SOL    HW2  606   4.557   0.810   1.668  0.8155  0.0789  0.0826
  263SOL     OW  607   3.122   4.803   3.812  0.3924 -0.2623  0.3467
  263SOL    HW1  608   3.173   4.823   3.895  0.7521  0.8736 -0.1344
  263SOL    HW2  609   3.183   4.806   3.733  0.0247 -1.1812  0.0029
  264SOL     OW  610   4.177   2.628   0.298 -0.4207  0.6251  0.1961
  264SOL    HW1  611   4.235   2.648   0.220 -0.3252  0.2032  0.1547
  264SOL    HW2  612   4.164   2.710   0.353  2.1073  0.2736  1.4951
  265SOL     OW  613   0.315   0.742   2.514  0.1676 -0.1453  0.1599
  265SOL    HW1  614   0.221   0.775   2.522  0.1883 -0.3543  1.2833
  265SOL    HW2  615   0.377   0.820   2.516  0.0436 -0.0322 -0.2522
  266SOL     OW  616   0.319   2.108   1.727 -0.2788  0.9447 -0.4022
  266SOL    HW1  617   0.416   2.128   1.738  0.4235 -1.5711 -1.2077
  266SOL    HW2  618   0.302   2.081   1.632 -1.1521 -1.2837  0.3191
  267SOL     OW  619   1.329   0.752   1.512 -0.2205  0.2886 -0.1439
  267SOL    HW1  620   1.335   0.803   1.597  0.6502  0.6276 -0.3916
  267SOL    HW2  621   1.314   0.815   1.436 -3.9004 -0.2061 -0.0119
  268SOL     OW  622   4.095   0.494   1.413 -1.0460 -0.7605  0.2252
  268SOL    HW1  623   4.159   0.549   1.467 -0.9938 -0.5504 -0.0461
  268SOL    HW2  624   4.044   0.433   1.473  0.3122 -1.8535  0.3207
  269SOL     OW  625   4.137   1.766   3.547 -0.1654 -0.3111  0.6272
  269SOL    HW1  626   4.232   1.791   3.568 -0.3891  1.0629  0.1514
  269SOL    HW2  627   4.093   1.842   3.498 -1.2232 -1.3126 -0.0315
  270SOL     OW  628   2.282   2.502   4.553  0.0153 -0.5387  0.9205
  270SOL    HW1  629   2.377   2.473   4.543 -0.3880 -1.8186  0.6183
  270SOL    HW2  630   2.267   2.539   4.645  0.5612 -1.2812  1.3105
  271SOL     OW  631   0.600   0.930   0.265  0.0093  0.0891 -0.7726
  271SOL    HW1  632   0.614   1.011   0.207  0.5118 -0.5920 -1.6342
  271SOL    HW2  633   0.606   0.848   0.209  0.6606 -0.6057  0.2808
  272SOL     OW  634   2.840   4.811   0.624 -0.5890 -0.8124 -0.8302
  272SOL    HW1  635   2.931   4.844   0.647 -0.2577 -0.4843 -2.4856
  272SOL    HW2  636   2.777   4.888   0.618 -1.3993 -1.1675  1.8548
  273SOL     OW  637   0.023   3.200   2.135  0.5341 -0.0464 -0.4730
  273SOL    HW1  638  -0.017   3.211   2.044  0.4182  1.6958 -0.2433
  273SOL    HW2  639  -0.044   3.155   2.195  0.6694 -1.3523 -1.2539
  274SOL     OW  640   4.092   0.180   1.116  0.7346 -0.3109  0.0717
  274SOL    HW1  641   3.992   0.191   1.124  0.5660 -1.4700 -0.2417
  274SOL    HW2  642   4.123   0.111   1.182  0.9088 -1.9580 -1.6481
  275SOL     OW  643   1.033   1.351   2.978  0.9219  0.0760  0.3428
  275SOL    HW1  644   1.044   1.262   2.934  0.9115 -0.3910  1.2536
  275SOL    HW2  645   1.122   1.394   2.988  0.8883  0.3283 -0.4160
  276SOL     OW  646   0.092   0.091   3.755  0.3425 -0.2707 -0.0364
  276SOL    HW1  647   0.020   0.032   3.718 -1.5725  1.3769  0.8393
  276SOL    HW2  648   0.120   0.056   3.845 -0.6417 -0.0307  0.3894
  277SOL     OW  649   4.875   1.430   0.125  0.7548  0.1047 -0.6390
  277SOL    HW1  650   4.860   1.331   0.136  1.1029  0.0966 -0.1974
  277SOL    HW2  651   4.966   1.453   0.160  0.4912  0.6573 -0.3100
  278SOL     OW  652   1.370   0.964   4.855 -0.9288 -0.1619 -0.1784
  278SOL    HW1  653   1.323   0.920   4.932 -1.5029  0.6412 -0.0494
  278SOL    HW2  654   1.417   1.047   4.887  0.7503 -1.0391 -0.2750
  279SOL     OW  655   4.576   0.398   0.278  0.3609  0.7161  0.1653
  279SOL    HW1  656   4.675   0.406   0.278  0.5750 -1.1967 -1.6264
  279SOL    HW2  657   4.535   0.484   0.247  1.5606  0.8862 -1.0207
  280SOL     OW  658   0.789   0.984   3.708  0.7960 -0.3137  0.8460
  280SOL    HW1  659   0.776   1.083   3.698  0.1631 -0.4215  0.5814
  280SOL    HW2  660   0.756   0.955   3.797  0.0750 -0.4325  0.5501
  281SOL     OW  661   1.115   1.687   0.277 -0.1506 -0.2134  0.3508
  281SOL    HW1  662   1.096   1.739   0.360 -0.6632  0.9968 -0.4854
  281SOL    HW2  663   1.196   1.725   0.232 -0.4654 -0.2137 -0.2167
  282SOL     OW  664   2.074   1.437   0.895 -0.2421  0.5035 -0.5107
  282SOL    HW1  665   2.035   1.346   0.912 -0.7854  0.7715 -0.2754
  282SOL    HW2  666   1.999   1.503   0.885  0.1475  1.3420  1.6027
  283SOL     OW  667   4.626   3.525   0.236  0.1483 -0.0439  0.6678
  283SOL    HW1  668   4.676   3.604   0.273  1.2383 -0.0235 -0.7382
  283SOL    HW2  669   4.691   3.454   0.211 -0.5434 -0.1460 -0.9447
  284SOL     OW  670   1.933   3.658   0.209  0.1008 -0.6695 -0.3291
  284SOL    HW1  671   1.922   3.558   0.204 -0.8334 -0.6197  0.3747
  284SOL    HW2  672   1.857   3.697   0.261  1.3520  0.2492  0.8919
  285SOL     OW  673   0.253   2.044   0.263  0.0700 -0.4534  0.1833
  285SOL    HW1  674   0.265   1.947   0.284  1.9083 -0.7149 -1.7529
  285SOL    HW2  675   0.156   2.068   0.270 -0.7261 -2.9207 -1.1565
  286SOL     OW  676   0.684   2.369   4.521 -0.6073 -0.2950 -0.2721
  286SOL    HW1  677   0.685   2.446   4.458 -2.6840 -0.1013 -0.1251
  286SOL    HW2  678   0.607   2.309   4.500  0.5983 -2.0307  0.0026
  287SOL     OW  679   4.886   2.918   0.789 -0.3025 -0.3402 -0.1128
  287SOL    HW1  680   4.792   2.899   0.761 -0.2660 -0.4653 -0.1525
  287SOL    HW2  681   4.945   2.921   0.709 -0.5325  1.2951 -0.2484
  288SOL     OW  682   1.483   4.878   0.875 -0.1074  0.3258 -0.0562
  288SOL    HW1  683   1.581   4.882   0.893 -0.4627  1.3967  1.9394
  288SOL    HW2  684   1.465   4.905   0.780  1.6043 -1.3350 -0.9055
  289SOL     OW  685   0.257   1.859   2.336 -0.1106  0.3080  0.0654
  289SOL    HW1  686   0.331   1.824   2.394  0.3395  1.3942  0.1739
  289SOL    HW2  687   0.174   1.807   2.353 -0.8334  2.3496  3.9204
  290SOL     OW  688   4.976   2.250   4.559  0.4746 -0.2148  0.0726
  290SOL    HW1  689   5.042   2.182   4.591  0.4067  0.4090  1.6057
  290SOL    HW2  690   5.019   2.340   4.556 -0.2309  0.1587  0.8622
  291SOL     OW  691   0.920   2.270   1.710  0.3177  0.5361  0.5634
  291SOL    HW1  692   0.896   2.206   1.637  0.4687  2.4599 -1.2709
  291SOL    HW2  693   0.960   2.220   1.787 -0.0881 -1.5923 -0.5344
  292SOL     OW  694   2.110   4.235   0.133 -0.1864 -0.3553  0.0659
  292SOL    HW1  695   2.161   4.249   0.048 -1.1360 -0.9375 -0.6203
  292SOL    HW2  696   2.174   4.234   0.210  0.8226 -0.9245 -0.7488
  293SOL     OW  697   0.846   0.554   4.666  0.7045  0.0262  0.7638
  293SOL    HW1  698   0.765   0.508   4.630  1.7826 -0.6548 -0.9182
  293SOL    HW2  699   0.841   0.651   4.646  0.0111  0.0863  1.2272
  294SOL     OW  700   2.282   4.999   2.180  0.4844  0.5058 -0.0972
  294SOL    HW1  701   2.255   4.904   2.198  0.7379  0.1630 -1.3834
  294SOL    HW2  702   2.247   5.058   2.253 -0.5584 -0.4300  0.2022
  295SOL     OW  703   0.142   0.852   0.454  0.6478 -0.1249  0.1071
  295SOL    HW1  704   0.174   0.946   0.449 -1.9093  0.8133 -0.5763
  295SOL    HW2  705   0.054   0.845   0.407  1.6331 -3.2974 -1.5492
  296SOL     OW  706   0.603   1.770   4.641  0.1334 -0.4190  0.8540
  296SOL    HW1  707   0.617   1.725   4.552  2.6205 -0.1708  1.0638
  296SOL    HW2  708   0.586   1.867   4.626 -0.4136 -0.5468  0.6165
  297SOL     OW  709   1.632   1.036   1.433 -0.5535 -1.0656  0.0083
  297SOL    HW1  710   1.592   1.122   1.402  1.2022 -0.7967 -1.6639
  297SOL    HW2  711   1.630   1.033   1.533 -1.6810  0.3863  0.0652
  298SOL     OW  712   0.429   1.313   1.150  0.0108 -0.6785  0.3659
  298SOL    HW1  713   0.372   1.395   1.140 -1.8572 -1.9519  0.1013
  298SOL    HW2  714   0.436   1.289   1.247 -1.5819 -1.6064  0.2813
  299SOL     OW  715   2.633   1.238   1.500 -0.5662 -0.6864  0.4045
  299SOL    HW1  716   2.688   1.156   1.516  0.7009 -0.0269 -0.3504
  299SOL    HW2  717   2.620   1.287   1.586  0.2414 -0.7414  0.5657
  300SOL     OW  718   2.226   1.403   3.103 -0.0320  0.5351  0.2048
  300SOL    HW1  719   2.301   1.441   3.156 -0.0647  1.5304 -0.4350
  300SOL    HW2  720   2.175   1.338   3.159  0.4381  0.9336  1.1108
  301SOL     OW  721   0.758   3.307   1.908  0.0363  0.2589  0.3300
  301SOL    HW1  722   0.812   3.251   1.971 -0.3106 -0.1746  0.2545
  301SOL    HW2  723   0.793   3.400   1.907  0.9859 -0.0937  0.0271
  302SOL     OW  724   4.239   2.745   3.785  0.4210 -0.1629 -0.7953
  302SOL    HW1  725   4.283   2.719   3.699  1.7585 -2.4137  0.4720
  302SOL    HW2  726   4.308   2.782   3.848 -0.0231 -0.9231  0.1763
  303SOL     OW  727   2.340   4.220   1.528  0.1852  0.2261 -0.0001
  303SOL    HW1  728   2.347   4.120   1.534  1.9475  0.3346  0.3355
  303SOL    HW2  729   2.354   4.259   1.619 -0.1368  0.8096 -0.1975
  304SOL     OW  730   4.630   1.691   1.192 -0.0861  0.1568  0.1503
  304SOL    HW1  731   4.552   1.716   1.249 -0.0921 -0.0716  0.2426
  304SOL    HW2  732   4.708   1.669   1.251  0.0800  0.4839  0.0573
  305SOL     OW  733   0.191   1.969   1.209 -0.3587  0.3186 -0.8353
  305SOL    HW1  734   0.108   1.916   1.226  0.7588 -1.3464 -0.3606
  305SOL    HW2  735   0.245   1.925   1.137  1.2361  0.0098  0.4756
  306SOL     OW  736   0.578   5.022   2.832  0.1585 -0.0540  0.2712
  306SOL    HW1  737   0.643   5.009   2.907  0.7878  0.5704 -0.1617
  306SOL    HW2  738   0.627   5.047   2.748 -0.6119  0.1864 -0.1181
  307SOL     OW  739   2.745   4.889   4.788  0.1779  0.4785 -0.0288
  307SOL    HW1  740   2.665   4.843   4.826 -1.3545  2.6218 -0.4935
  307SOL    HW2  741   2.819   4.888   4.856 -0.6664 -0.4043  0.9160
  308SOL     OW  742   1.197   4.098   1.234  0.2187 -0.3444  0.1226
  308SOL    HW1  743   1.217   4.021   1.294 -0.5155 -0.8617 -0.2851
  308SOL    HW2  744   1.256   4.094   1.153 -1.1675 -1.6254 -0.8699
  309SOL     OW  745   3.238   2.217   0.079  0.3081 -0.1397 -0.2844
  309SOL    HW1  746   3.218   2.119   0.081  0.9280 -0.3326 -2.0245
  309SOL    HW2  747   3.156   2.267   0.048  0.1067 -0.1402  0.2438
  310SOL     OW  748   0.966   1.895   0.196 -0.1931  0.5005 -0.2729
  310SOL    HW1  749   0.885   1.889   0.255 -1.0125  0.2387 -1.3960
  310SOL    HW2  750   1.030   1.822   0.221 -1.2333 -0.5951 -0.7189
  311SOL     OW  751   1.440   0.447   4.774 -0.3397  0.3278  0.3790
  311SOL    HW1  752   1.417   0.383   4.848  0.8731 -1.2409 -0.5220
  311SOL    HW2  753   1.395   0.417   4.690  0.7924  0.2292 -0.2123
  312SOL     OW  754   2.196   0.101   2.596  0.3530  0.0420 -0.3380
  312SOL    HW1  755   2.126   0.150   2.648  1.0917 -1.6158  2.3757
  312SOL    HW2  756   2.152   0.039   2.531 -0.6517  0.3591  0.0189
  313SOL     OW  757   1.809   0.457   1.746  0.3614  0.5337  0.1004
  313SOL    HW1  758   1.770   0.369   1.717 -1.2607  0.6661  1.7262
  313SOL    HW2  759   1.798   0.524   1.672 -0.0069 -0.1633 -0.4939
  314SOL     OW  760   0.509   0.698   1.948  0.1340 -0.1573  0.3162
  314SOL    HW1  761   0.434   0.759   1.975  0.4570  0.5760 -0.3827
  314SOL    HW2  762   0.547   0.654   2.029  0.1708  0.9003  0.8937
  315SOL     OW  763   0.483   2.014   3.132 -0.2328  0.4519  0.0493
  315SOL    HW1  764   0.559   1.960   3.097 -0.6216  0.0383 -0.1643
  315SOL    HW2  765   0.397   1.974   3.102 -0.5354  0.9847  0.1890
  316SOL     OW  766   0.871   0.283   3.017  0.4179  0.2517 -0.2192
  316SOL    HW1  767   0.862   0.373   2.973 -0.2256  1.0205  1.4254
  316SOL    HW2  768   0.901   0.216   2.949  1.2274  1.7628 -1.4157
  317SOL     OW  769   0.412   4.160   0.914  0.4542 -0.9773  0.2843
  317SOL    HW1  770   0.500   4.190   0.876 -0.3281  2.0831  0.6130
  317SOL    HW2  771   0.337   4.201   0.862 -0.6883  0.5303  2.8906
  318SOL     OW  772   0.162   0.764   0.717 -0.3740  0.5245  0.3403
  318SOL    HW1  773   0.223   0.829   0.763 -0.1450  0.5539 -0.0086
  318SOL    HW2  774   0.147   0.793   0.623 -0.0284 -0.1004  0.0924
  319SOL     OW  775   2.548   0.271   2.367  0.1551  0.5310  0.3126
  319SOL    HW1  776   2.540   0.253   2.465  1.6672 -0.1757  0.3346
  319SOL    HW2  777   2.633   0.230   2.333 -0.9286 -0.3092 -1.5376
  320SOL     OW  778   2.398   0.396   0.074  0.3580  0.2362  0.1337
  320SOL    HW1  779   2.465   0.462   0.039  0.4421  1.4381  2.3880
  320SOL    HW2  780   2.326   0.383   0.006  2.2129 -0.2234 -1.8873
  321SOL     OW  781   0.959   2.574   3.063  0.0574 -0.2088  0.2448
  321SOL    HW1  782   0.933   2.655   3.009  2.2692 -0.0617 -0.7222
  321SOL    HW2  783   0.991   2.502   3.001 -1.2901 -1.6289  1.1384
  322SOL     OW  784   0.748   2.212   0.058 -0.3417  0.2432 -0.6190
  322SOL    HW1  785   0.703   2.123   0.055  0.0812  0.0096 -0.0886
  322SOL    HW2  786   0.839   2.203   0.098 -0.9502  1.1701  1.1074
  323SOL     OW  787   0.199   0.032   4.745  0.6373  0.5405  0.2847
  323SOL    HW1  788   0.131   0.029   4.671  0.1255  1.3979  0.7058
  323SOL    HW2  789   0.154   0.015   4.832  1.2917 -0.7831  0.3986
  324SOL     OW  790   0.574   4.916   0.163  0.0255 -0.3502  0.0567
  324SOL    HW1  791   0.657   4.861   0.164  0.7279  0.6296  2.6515
  324SOL    HW2  792   0.500   4.867   0.210 -0.2506 -0.3426 -0.3657
  325SOL     OW  793   1.297   0.878   1.772 -0.2360  0.2723 -0.0735
  325SOL    HW1  794   1.329   0.819   1.847  1.2316  1.9081  0.6498
  325SOL    HW2  795   1.211   0.921   1.799 -2.1024 -2.4795 -1.1610
  326SOL     OW  796   0.274   0.917   1.259  0.2066 -0.0379 -0.7464
  326SOL    HW1  797   0.329   0.942   1.338  1.4983  0.6535 -1.8353
  326SOL    HW2  798   0.317   0.841   1.210  1.2653  1.7229 -2.6710
  327SOL     OW  799   0.686   1.188   2.860 -0.0212  0.1948  0.0115
  327SOL    HW1  800   0.615   1.176   2.930 -0.0278  1.8828  0.3425
  327SOL    HW2  801   0.761   1.124   2.877 -0.1614  0.3601  1.4183
  328SOL     OW  802   0.807   1.312   2.621 -0.1786  0.3964 -0.4601
  328SOL    HW1  803   0.865   1.380   2.668  0.0207 -0.1942  0.1656
  328SOL    HW2  804   0.745   1.271   2.687  0.4194 -0.7795 -0.6071
  329SOL     OW  805   2.477   0.917   4.589  0.0338  0.6459  0.6484
  329SOL    HW1  806   2.518   0.892   4.502 -2.0025  1.7225 -0.6864
  329SOL    HW2  807   2.470   0.835   4.647 -2.4375 -1.1050 -1.8616
  330SOL     OW  808   4.514   0.928   3.675  0.3061  0.0487 -0.4617
  330SOL    HW1  809   4.481   0.846   3.722 -0.5800 -0.1600 -1.4099
  330SOL    HW2  810   4.453   0.950   3.600  0.8060  1.3136 -0.5249
  331SOL     OW  811   1.097   5.003   1.510 -0.2069 -0.1940 -0.3604
  331SOL    HW1  812   1.036   5.043   1.442 -0.7742  0.0387  0.2754
  331SOL    HW2  813   1.050   4.931   1.561  0.6018 -1.2313 -1.0361
  332SOL     OW  814   4.432   1.297   1.455 -0.3776  0.2842 -0.0073
  332SOL    HW1  815   4.334   1.313   1.467 -0.4481 -0.1058 -0.0757
  332SOL    HW2  816   4.452   1.200   1.465 -0.2869  0.0557 -1.9964
  333SOL     OW  817   0.084   0.223   0.951  0.6038 -0.0581  0.1092
  333SOL    HW1  818   0.109   0.251   0.859  1.3103  0.4602  0.4468
  333SOL    HW2  819   0.162   0.236   1.012 -0.2113  0.7209  1.0168
  334SOL     OW  820   4.597   0.135   1.564  0.4850  0.0311  0.0554
  334SOL    HW1  821   4.512   0.165   1.520  0.2070 -1.2917 -0.3585
  334SOL    HW2  822   4.611   0.037   1.546  1.7008  0.0546  0.7709
  335SOL     OW  823   1.620   4.625   1.131 -0.4372 -0.4896 -0.4413
  335SOL    HW1  824   1.526   4.640   1.103 -0.3979 -1.2358 -0.9886
  335SOL    HW2  825   1.623   4.598   1.227 -0.6633  0.8738 -0.0241
  336SOL     OW  826   0.657   2.798   4.754 -0.2490 -0.3473 -0.6665
  336SOL    HW1  827   0.623   2.732   4.687  1.0957 -1.2512 -0.5107
  336SOL    HW2  828   0.737   2.845   4.716  0.2518 -0.5508  0.1185
  337SOL     OW  829   0.788   2.442   0.984  0.1611 -0.2682  0.1352
  337SOL    HW1  830   0.841   2.514   0.939 -1.2189 -0.3134 -1.6717
  337SOL    HW2  831   0.696   2.476   1.005 -0.4953 -1.4565 -0.6926
  338SOL     OW  832   1.575   0.003   0.479  0.3922  0.1503 -0.1911
  338SOL    HW1  833   1.530   0.044   0.559  0.5272 -0.9549  0.4682
  338SOL    HW2  834   1.589   0.074   0.410 -0.2047  1.0218  0.5450
  339SOL     OW  835   3.220   1.492   2.173  0.1871  0.5293 -0.2982
  339SOL    HW1  836   3.154   1.566   2.162 -2.7733 -2.0929 -1.6699
  339SOL    HW2  837   3.213   1.456   2.267  0.8966  1.2843  0.0564
  340SOL     OW  838   2.595   5.016   2.514 -0.1830 -0.3001 -0.8663
  340SOL    HW1  839   2.530   4.997   2.587  0.2951  1.4151  0.0486
  340SOL    HW2  840   2.572   4.961   2.433 -1.9326 -0.7220 -0.1118
  341SOL     OW  841   0.555   4.537   4.310 -0.4117  0.6772 -0.1566
  341SOL    HW1  842   0.570   4.496   4.400 -0.6946 -0.7184 -0.7232
  341SOL    HW2  843   0.641   4.573   4.275 -0.1867  0.7097  0.4158
  342SOL     OW  844   2.355   1.680   4.166 -0.6188 -0.3247 -0.1627
  342SOL    HW1  845   2.318   1.667   4.258 -1.1107 -0.7980 -0.4260
  342SOL    HW2  846   2.361   1.592   4.119 -1.5104  0.0468 -1.0160
  343SOL     OW  847   2.390   1.160   2.004  0.0289  0.2466  0.0301
  343SOL    HW1  848   2.417   1.191   1.913  1.0111  0.8520  0.5090
  343SOL    HW2  849   2.368   1.062   2.001 -1.7605  0.6535 -1.2097
  344SOL     OW  850   1.306   0.425   4.098 -0.0309 -0.1229  0.0227
  344SOL    HW1  851   1.340   0.418   4.192 -0.8119 -0.0799  0.3118
  344SOL    HW2  852   1.213   0.461   4.098  0.8262  2.2700 -0.9208
  345SOL     OW  853   1.571   0.433   2.155  0.2148 -0.3573  0.2356
  345SOL    HW1  854   1.633   0.498   2.109  1.5850 -0.3351  2.0080
  345SOL    HW2  855   1.618   0.392   2.233 -1.8498 -0.7752  1.3232
  346SOL     OW  856   1.598   2.048   2.671 -0.1626  0.5230 -0.6011
  346SOL    HW1  857   1.692   2.025   2.647 -0.1763  1.0981 -1.2487
  346SOL    HW2  858   1.587   2.047   2.771  0.5189  0.4117 -0.5281
  347SOL     OW  859   1.858   1.689   2.618 -0.0185  0.4955 -0.6441
  347SOL    HW1  860   1.792   1.683   2.542 -1.3754  1.4481  0.4143
  347SOL    HW2  861   1.859   1.782   2.654  0.3732 -0.0097  0.7111
  348SOL     OW  862   0.948   2.211   1.996 -0.0985 -0.1772  0.0459
  348SOL    HW1  863   1.029   2.153   1.986 -1.0553 -1.5000 -0.4386
  348SOL    HW2  864   0.869   2.153   2.019 -0.5833  1.2684  2.3283
  349SOL     OW  865   1.891   1.067   2.482  0.1960  0.3803 -0.3622
  349SOL    HW1  866   1.913   0.970   2.493  1.5887  0.6885 -0.2668
  349SOL    HW2  867   1.972   1.122   2.501 -1.0118  1.6807  1.3594
  350SOL     OW  868   0.916   1.399   3.393 -0.1803 -0.1890  0.3583
  350SOL    HW1  869   1.000   1.426   3.347 -0.6148  1.1502  0.2880
  350SOL    HW2  870   0.894   1.466   3.465 -1.2336 -0.4416  0.2944
  351SOL     OW  871   0.127   0.401   3.341  0.3647  0.2314  0.4068
  351SOL    HW1  872   0.093   0.308   3.328 -5.0794  1.9914 -0.8830
  351SOL    HW2  873   0.076   0.444   3.416  1.5736  2.6502 -0.0533
  352SOL     OW  874   2.777   1.846   1.884 -0.3476 -0.1220  0.5199
  352SOL    HW1  875   2.704   1.891   1.936 -1.2837 -0.0216 -0.8584
  352SOL    HW2  876   2.744   1.758   1.849 -0.0476  0.2262 -0.6716
  353SOL     OW  877   0.963   1.979   3.553  0.4709 -0.2945  0.2836
  353SOL    HW1  878   1.027   1.995   3.628 -0.0710 -2.1810  1.2148
  353SOL    HW2  879   0.874   1.952   3.591 -0.5157  0.9858 -1.0089
  354SOL     OW  880   4.668   1.705   4.483  0.3933 -0.6630  0.5479
  354SOL    HW1  881   4.569   1.703   4.465  0.6626 -1.8737 -1.0117
  354SOL    HW2  882   4.686   1.760   4.565 -1.5247 -0.0621  0.6122
  355SOL     OW  883   2.088   1.762   3.646 -0.0123 -0.3711 -0.8769
  355SOL    HW1  884   2.075   1.694   3.575 -0.8408  0.4217 -1.5090
  355SOL    HW2  885   2.000   1.786   3.687  0.1756  0.7354 -1.0740
  356SOL     OW  886   2.103   1.477   2.829 -0.1470  0.2646  0.2352
  356SOL    HW1  887   2.149   1.428   2.903  1.2584 -1.4845 -1.6995
  356SOL    HW2  888   2.142   1.569   2.821 -1.0950  0.8977  2.3174
  357SOL     OW  889   3.203   0.310   2.071 -0.5777  0.2439 -0.2450
  357SOL    HW1  890   3.226   0.268   1.983  0.0214  1.2317 -0.5721
  357SOL    HW2  891   3.280   0.366   2.102  0.0640 -1.6400  1.8979
  358SOL     OW  892   0.652   4.392   2.670  0.1790 -0.7933 -0.0685
  358SOL    HW1  893   0.585   4.459   2.637 -0.7660 -2.1268 -0.9984
  358SOL    HW2  894   0.728   4.439   2.713 -0.7951  0.8368 -0.0375
  359SOL     OW  895   1.994   1.611   1.362  0.6153 -0.6475  0.0081
  359SOL    HW1  896   2.091   1.632   1.348 -0.1287  2.2407 -1.5091
  359SOL    HW2  897   1.969   1.636   1.456  1.0808 -0.2472  0.0352
  360SOL     OW  898   0.005   1.491   3.360  0.7767 -0.6453 -0.0208
  360SOL    HW1  899  -0.085   1.535   3.370  1.1971  0.0496  0.8372
  360SOL    HW2  900  -0.006   1.404   3.312 -0.5290 -1.1295  1.0849
  361SOL     OW  901   4.187   1.497   3.592  0.2715  0.1299 -0.0954
  361SOL    HW1  902   4.178   1.589   3.553 -0.2290  0.7592  1.4268
  361SOL    HW2  903   4.217   1.433   3.521 -0.9764  1.1365 -1.5987
  362SOL     OW  904   4.817   2.436   3.226  0.1263 -0.0581  0.4046
  362SOL    HW1  905   4.783   2.506   3.289  1.5881 -0.0913  1.2941
  362SOL    HW2  906   4.865   2.480   3.150  0.0109 -0.0565  0.3338
  363SOL     OW  907   0.620   1.627   3.605  0.0073  0.6792 -0.2302
  363SOL    HW1  908   0.531   1.615   3.648  0.0941  1.2570  0.1142
  363SOL    HW2  909   0.617   1.592   3.511 -0.7022  1.1053 -0.3687
  364SOL     OW  910   0.712   0.121   2.654  0.6275  1.1174 -0.0953
  364SOL    HW1  911   0.694   0.184   2.579  1.2533  2.2873  0.7096
  364SOL    HW2  912   0.791   0.153   2.707 -0.4911  0.9812  1.7683
  365SOL     OW  913   0.264   0.488   2.102 -0.0979 -0.4262 -0.7510
  365SOL    HW1  914   0.355   0.519   2.128 -0.2544 -1.7024  1.6660
  365SOL    HW2  915   0.225   0.550   2.034  1.0752  2.3601  0.9450
  366SOL     OW  916   2.262   1.905   0.148 -0.5246 -0.0644 -0.2072
  366SOL    HW1  917   2.317   1.828   0.180 -0.9845 -0.5379 -0.5285
  366SOL    HW2  918   2.201   1.874   0.075 -0.2035  0.7616 -0.8476
  367SOL     OW  919   4.874   2.922   2.586 -0.0383 -0.2811 -0.5275
  367SOL    HW1  920   4.897   3.006   2.635 -0.4046  0.5881 -1.7953
  367SOL    HW2  921   4.951   2.857   2.593 -0.5074 -0.6662  2.0900
  368SOL     OW  922   0.044   0.032   2.105  0.0246  0.0136  0.3442
  368SOL    HW1  923   0.022  -0.014   2.191 -0.2169 -0.2940  0.1222
  368SOL    HW2  924   0.143   0.042   2.097  0.0467  0.1010  0.6854
  369SOL     OW  925   0.813   0.236   1.577 -0.7708  0.3299  0.0015
  369SOL    HW1  926   0.725   0.196   1.555 -0.9119  0.6836 -0.0861
  369SOL    HW2  927   0.881   0.208   1.509 -0.8541  0.2016 -0.0286
  370SOL     OW  928   0.727   3.591   2.632  0.1478 -0.2564 -0.3413
  370SOL    HW1  929   0.646   3.640   2.599  0.4881  0.5487 -0.0145
  370SOL    HW2  930   0.724   3.586   2.732  1.0404  0.7703 -0.2475
  371SOL     OW  931   1.307   0.407   2.986  0.0218 -0.3898  0.5246
  371SOL    HW1  932   1.344   0.475   3.050 -1.7535 -0.0174  1.2216
  371SOL    HW2  933   1.207   0.417   2.980  0.0442 -0.8902 -1.7855
  372SOL     OW  934   0.335   2.796   3.260  0.4148 -0.7481  0.0177
  372SOL    HW1  935   0.382   2.833   3.179  1.2345  0.2537  0.9242
  372SOL    HW2  936   0.303   2.704   3.240  1.0090 -0.6944 -1.3047
  373SOL     OW  937   0.136   0.966   3.613 -0.4005  0.0190 -0.0908
  373SOL    HW1  938   0.037   0.968   3.598 -0.5204  0.3340  0.6879
  373SOL    HW2  939   0.155   0.979   3.710  0.3121 -2.2161  0.1175
  374SOL     OW  940   0.983   0.950   3.281  0.1884 -0.2739 -0.4196
  374SOL    HW1  941   0.888   0.967   3.258 -0.1642  0.0160  1.1493
  374SOL    HW2  942   0.999   0.972   3.377  1.9374  0.0686 -0.7530
  375SOL     OW  943   4.696   0.615   2.520  0.2835  0.0313 -0.2670
  375SOL    HW1  944   4.719   0.628   2.423  2.4352 -1.1683  0.0033
  375SOL    HW2  945   4.767   0.657   2.577  0.8868 -2.1439  0.7047
  376SOL     OW  946   0.020   0.700   0.099  0.0431  0.3975 -0.0562
  376SOL    HW1  947  -0.058   0.643   0.074 -0.0337  0.5771 -0.2258
  376SOL    HW2  948  -0.004   0.758   0.177  0.5806 -0.8452  1.0853
  377SOL     OW  949   0.617   4.657   3.780  0.4008 -0.1632 -0.0052
  377SOL    HW1  950   0.679   4.626   3.708  1.6707  0.3781  0.8301
  377SOL    HW2  951   0.523   4.636   3.753  0.9392 -1.2645 -1.1678
  378SOL     OW  952   1.642   1.488   1.075 -0.4621  0.4051 -0.2824
  378SOL    HW1  953   1.718   1.460   1.133  0.8144 -0.9681 -2.4692
  378SOL    HW2  954   1.571   1.417   1.076 -0.6541  0.5962 -0.0711
  379SOL     OW  955   0.859   1.157   0.517 -0.1107  0.1705  0.2837
  379SOL    HW1  956   0.932   1.205   0.567  0.4846  3.2153 -3.0335
  379SOL    HW2  957   0.812   1.222   0.457 -1.1539 -2.9445 -2.6088
  380SOL     OW  958   4.548   1.375   3.131  0.1023  0.7461 -0.0820
  380SOL    HW1  959   4.554   1.275   3.134  4.2303  0.7508 -1.6008
  380SOL    HW2  960   4.471   1.402   3.074 -2.4491 -1.4042  2.0675
  381SOL     OW  961   4.306   1.305   1.850  0.4417  0.0814  0.7686
  381SOL    HW1  962   4.345   1.223   1.807  0.1751  0.0566  0.5687
  381SOL    HW2  963   4.377   1.374   1.862  0.5530  0.0287  0.4260
  382SOL     OW  964   1.046   0.567   1.836 -0.1588  0.1233 -0.2857
  382SOL    HW1  965   1.123   0.507   1.815 -0.6669 -1.0646  1.0845
  382SOL    HW2  966   1.047   0.590   1.934 -0.2254  2.0311 -0.6795
  383SOL     OW  967   0.785   2.537   4.116 -0.2810 -0.2959 -0.0681
  383SOL    HW1  968   0.871   2.570   4.078 -0.0745 -2.0353 -1.2298
  383SOL    HW2  969   0.712   2.549   4.049 -1.1891  1.9322  1.2099
  384SOL     OW  970   4.551   0.296   2.807 -0.2667  0.3658  0.5050
  384SOL    HW1  971   4.510   0.334   2.889 -2.8325 -0.2180 -0.4297
  384SOL    HW2  972   4.524   0.350   2.727 -1.7031 -1.7030 -0.5031
  385SOL     OW  973   1.746   1.465   1.739  0.1756  0.7150 -0.0060
  385SOL    HW1  974   1.745   1.427   1.646  0.0563 -0.6332  0.5279
  385SOL    HW2  975   1.701   1.554   1.738 -0.7215  0.2812 -1.0713
  386SOL     OW  976   1.189   4.935   2.291  0.3730  0.3082  0.0061
  386SOL    HW1  977   1.269   4.890   2.331  0.5675 -1.2957 -2.0248
  386SOL    HW2  978   1.213   5.029   2.265  1.8799 -0.3862 -1.2684
  387SOL     OW  979   1.653   1.772   1.099 -0.1048  0.1718 -0.6357
  387SOL    HW1  980   1.659   1.672   1.099  1.5550  0.0989  2.9799
  387SOL    HW2  981   1.558   1.799   1.112 -0.3334 -1.0719  0.5708
  388SOL     OW  982   4.898   1.267   2.151 -0.0619 -0.4087 -0.4023
  388SOL    HW1  983   4.892   1.178   2.107 -0.6333 -0.3344 -0.4867
  388SOL    HW2  984   4.915   1.338   2.082 -1.0607 -0.2793 -0.5394
  389SOL     OW  985   4.361   3.687   3.605 -0.0740  0.0921  0.0144
  389SOL    HW1  986   4.375   3.593   3.573 -0.4423 -1.1154  3.0504
  389SOL    HW2  987   4.265   3.712   3.593  0.3090  0.7321 -2.1843
  390SOL     OW  988   0.804   0.518   2.841  0.0123 -0.7581 -0.4382
  390SOL    HW1  989   0.799   0.607   2.797  0.2242  0.4510  1.8374
  390SOL    HW2  990   0.721   0.502   2.894  0.8485 -0.9536  0.8510
  391SOL     OW  991   1.377   3.067   3.228 -0.1142  0.4569 -0.1450
  391SOL    HW1  992   1.308   3.112   3.285  0.6583  0.9660  0.3997
  391SOL    HW2  993   1.459   3.123   3.225  0.8283 -0.8370  0.4281
  392SOL     OW  994   1.508   2.423   2.178  0.0465 -0.4422  0.2512
  392SOL    HW1  995   1.580   2.405   2.244 -0.4664 -0.1910  0.8862
  392SOL    HW2  996   1.521   2.514   2.138 -0.1507 -0.2194  0.6816
  393SOL     OW  997   1.813   4.373   1.961 -0.7503  0.1383  0.4320
  393SOL    HW1  998   1.904   4.397   1.927 -1.1793  0.0654 -0.8095
  393SOL    HW2  999   1.799   4.414   2.051  1.0498 -1.0428  1.3140
  394SOL     OW 1000   0.538   2.418   0.502 -0.7894 -0.5860 -0.3947
  394SOL    HW1 1001   0.571   2.367   0.422  2.5281 -1.2479  1.2241
  394SOL    HW2 1002   0.562   2.514   0.492  0.0864 -0.7558 -0.0163
  395SOL     OW 1003   0.797   1.032   2.000 -0.0872 -0.2649 -0.4194
  395SOL    HW1 1004   0.723   1.002   1.939 -2.2469  0.0805  1.8986
  395SOL    HW2 1005   0.771   1.116   2.046  1.0927 -0.9500  1.6262
  396SOL     OW 1006   2.516   1.928   1.956 -0.8590 -0.5909 -0.0664
  396SOL    HW1 1007   2.486   1.999   2.020  0.6159  0.4890 -0.5387
  396SOL    HW2 1008   2.436   1.875   1.926 -1.9414  0.6152  0.5713
  397SOL     OW 1009   0.498   0.960   2.551 -0.7301  0.1572  0.0471
  397SOL    HW1 1010   0.577   0.911   2.588 -1.0020 -0.9582 -0.7783
  397SOL    HW2 1011   0.526   1.015   2.473 -0.5008  1.0080  0.7150
  398SOL     OW 1012   0.973   0.726   2.514  0.1280  0.2224 -0.3516
  398SOL    HW1 1013   0.940   0.646   2.463  0.4038  1.3266 -2.3576
  398SOL    HW2 1014   0.902   0.757   2.577 -0.9170 -0.1459 -1.3226
  399SOL     OW 1015   3.184   0.635   2.824 -0.3184  0.0324  0.1922
  399SOL    HW1 1016   3.107   0.588   2.781  0.2810 -1.2409  0.4725
  399SOL    HW2 1017   3.251   0.568   2.855  0.4008  1.0631  0.9332
  400SOL     OW 1018   4.413   3.049   3.472  0.1167 -0.2087  0.2750
  400SOL    HW1 1019   4.475   3.128   3.461 -2.4364  2.2135  1.8495
  400SOL    HW2 1020   4.373   3.052   3.564 -1.3233 -2.4589 -0.2301
  401SOL     OW 1021   1.050   1.834   0.500  0.4988  0.1023 -0.1615
  401SOL    HW1 1022   1.030   1.777   0.579 -1.4283  2.2496  1.0174
  401SOL    HW2 1023   1.122   1.900   0.524 -0.1193  0.7870 -0.1620
  402SOL     OW 1024   1.061   4.626   3.557 -0.6071 -0.2184  0.1680
  402SOL    HW1 1025   1.008   4.695   3.605 -0.7375 -0.5401  0.4881
  402SOL    HW2 1026   1.159   4.643   3.569 -0.6248 -1.0224  1.6159
  403SOL     OW 1027   1.070   1.012   1.845  0.0294 -0.9299 -0.1077
  403SOL    HW1 1028   0.985   1.018   1.898  1.1447 -1.5043  1.8108
  403SOL    HW2 1029   1.121   1.097   1.854 -0.6075 -0.3200 -1.8237
  404SOL     OW 1030   1.071   0.487   2.815  0.5116  0.1552  0.7390
  404SOL    HW1 1031   1.122   0.573   2.816 -0.7893  0.9485  0.9217
  404SOL    HW2 1032   0.974   0.505   2.829  0.2021 -1.3506  0.7526
  405SOL     OW 1033   0.689   1.720   1.229 -0.4520 -0.5960  0.2339
  405SOL    HW1 1034   0.692   1.640   1.170  0.6491 -0.7779  0.5144
  405SOL    HW2 1035   0.628   1.702   1.307 -0.9459 -0.8042 -0.1974
  406SOL     OW 1036   2.841   4.245   3.943 -0.7183  0.7765  0.0254
  406SOL    HW1 1037   2.797   4.212   4.026  0.4147  1.4461  0.9218
  406SOL    HW2 1038   2.931   4.203   3.934 -0.8132  0.7325 -0.8712
  407SOL     OW 1039   1.186   2.168   3.088  0.8310  0.2845  0.1318
  407SOL    HW1 1040   1.100   2.160   3.139  0.0219 -4.0120 -1.4532
  407SOL    HW2 1041   1.257   2.114   3.135  1.5402  0.5200 -0.6441
  408SOL     OW 1042   4.906   0.665   2.648 -0.7847 -0.1713 -0.1642
  408SOL    HW1 1043   4.919   0.567   2.632 -5.2853 -1.3832  2.1266
  408SOL    HW2 1044   4.949   0.691   2.734  1.6073  0.3970 -1.4068
  409SOL     OW 1045   2.023   1.335   3.290 -0.3607 -0.3416 -0.0134
  409SOL    HW1 1046   1.966   1.390   3.229 -1.0106 -1.2291 -0.2497
  409SOL    HW2 1047   1.971   1.253   3.317  0.1340 -0.2464  1.2660
  410SOL     OW 1048   2.042   0.274   2.222  0.2690 -0.0715 -0.2489
  410SOL    HW1 1049   2.124   0.312   2.263  0.9937 -0.5110 -1.2311
  410SOL    HW2 1050   2.001   0.341   2.160  0.2427 -0.0717 -0.2317
  411SOL     OW 1051   4.073   4.799   2.940  0.3723  0.3579 -0.1693
  411SOL    HW1 1052   4.119   4.835   3.021  1.2612 -2.5871  0.7371
  411SOL    HW2 1053   4.017   4.720   2.966 -0.6894  0.3827 -2.1845
  412SOL     OW 1054   4.943   3.133   3.884 -0.0702 -0.4042  0.0709
  412SOL    HW1 1055   4.918   3.102   3.792 -0.1967  1.8252 -0.6948
  412SOL    HW2 1056   5.022   3.193   3.879 -0.3516  0.1042  1.3651
  413SOL     OW 1057   1.989   4.015   2.958 -0.1121  0.1115 -0.4295
  413SOL    HW1 1058   2.052   4.086   2.991 -1.1804  0.0475  1.9263
  413SOL    HW2 1059   2.022   3.926   2.987 -1.2231  0.0746  0.7824
  414SOL     OW 1060   0.472   1.484   1.979  0.1506 -0.4776 -0.4455
  414SOL    HW1 1061   0.468   1.540   2.062  0.0347  0.8955 -1.3577
  414SOL    HW2 1062   0.384   1.438   1.966 -0.2170  0.2114 -0.4251
  415SOL     OW 1063   0.502   0.279   3.157  0.6881  1.0060 -0.0396
  415SOL    HW1 1064   0.437   0.349   3.188  0.0996  0.6137 -0.3614
  415SOL    HW2 1065   0.530   0.223   3.235 -1.4490 -0.5283 -0.2752
  416SOL     OW 1066   0.917   3.007   2.438 -0.1562  0.0141  0.6126
  416SOL    HW1 1067   0.844   2.939   2.431 -0.4033  0.2309  1.0553
  416SOL    HW2 1068   0.986   2.989   2.368  0.2742 -1.2859  1.3226
  417SOL     OW 1069   2.865   2.058   1.148 -0.5379 -0.0435 -0.0400
  417SOL    HW1 1070   2.878   2.067   1.247 -0.7816 -0.9554  0.0864
  417SOL    HW2 1071   2.779   2.101   1.122 -0.7817 -0.3476  0.2482
  418SOL     OW 1072   0.100   0.172   1.435 -0.2267  0.0016 -0.3257
  418SOL    HW1 1073   0.125   0.269   1.440 -0.1711 -0.1020  2.8920
  418SOL    HW2 1074   0.180   0.119   1.406  0.1643  0.7334 -0.6229
  419SOL     OW 1075   1.950   4.051   1.402  0.3271 -0.8011  0.2991
  419SOL    HW1 1076   1.993   3.980   1.346  1.9108 -0.7343  1.3734
  419SOL    HW2 1077   1.970   4.141   1.364  0.7562 -0.7942  0.5378
  420SOL     OW 1078   0.880   4.599   3.930 -0.1416 -0.1828 -0.5643
  420SOL    HW1 1079   0.798   4.578   3.877 -0.4993 -2.5372  0.7635
  420SOL    HW2 1080   0.924   4.513   3.959  1.4665  1.0123  0.7483
  421SOL     OW 1081   3.435   1.546   1.991 -0.0803  0.0275  0.1906
  421SOL    HW1 1082   3.356   1.524   2.048 -0.7904  2.6582  0.3485
  421SOL    HW2 1083   3.421   1.508   1.899 -1.3672  0.1338  0.3254
  422SOL     OW 1084   0.069   1.054   3.085  0.0736  0.3613  0.6435
  422SOL    HW1 1085   0.142   1.055   3.017 -2.0992 -1.2791 -1.9204
  422SOL    HW2 1086   0.103   1.014   3.170  2.2332 -0.0089 -0.3306
  423SOL     OW 1087   0.720   1.879   3.617 -0.1439 -0.3342 -0.7369
  423SOL    HW1 1088   0.678   1.792   3.592 -0.5933  0.0711 -1.4275
  423SOL    HW2 1089   0.696   1.902   3.712 -1.1283 -0.3172 -0.9819
  424SOL     OW 1090   4.990   2.366   4.040 -0.0634 -0.3405  0.4474
  424SOL    HW1 1091   5.060   2.348   4.108 -0.4653 -0.0757  0.9357
  424SOL    HW2 1092   4.916   2.298   4.049 -1.6313  1.4889  2.3518
  425SOL     OW 1093   1.158   2.054   2.543  0.0160  0.0399  0.2914
  425SOL    HW1 1094   1.131   2.016   2.631  1.2727  0.4013  0.8446
  425SOL    HW2 1095   1.106   2.138   2.525  0.3005  0.3845  1.0523
  426SOL     OW 1096   2.256   1.697   2.708  0.1608 -0.5926 -0.0619
  426SOL    HW1 1097   2.334   1.671   2.765 -0.6532 -0.8764  0.9561
  426SOL    HW2 1098   2.193   1.754   2.761  0.4740  1.0708 -1.3730
  427SOL     OW 1099   2.112   1.636   3.132 -0.1878  0.3323  0.1579
  427SOL    HW1 1100   2.024   1.598   3.159 -0.1386  0.1367  0.0494
  427SOL    HW2 1101   2.173   1.561   3.105  0.4702  0.3464  1.5261
  428SOL     OW 1102   1.301   4.705   3.928  0.0864  0.2220  0.1095
  428SOL    HW1 1103   1.293   4.611   3.962  1.6086  0.2065  0.5068
  428SOL    HW2 1104   1.388   4.744   3.958 -0.2223  1.5367 -0.6160
  429SOL     OW 1105   3.546   0.357   2.769 -0.2359 -0.0620 -0.1867
  429SOL    HW1 1106   3.535   0.359   2.669  1.1895  3.3322 -0.3986
  429SOL    HW2 1107   3.638   0.387   2.793 -0.2327 -1.7214  2.1987
  430SOL     OW 1108   2.961   0.613   2.282  0.1151 -0.0510  0.6584
  430SOL    HW1 1109   3.002   0.524   2.300  0.1423 -0.1423  0.1516
  430SOL    HW2 1110   2.864   0.611   2.304 -0.0200 -0.3936  0.0525
  431SOL     OW 1111   0.929   0.794   1.750 -0.0875  0.3798 -1.0027
  431SOL    HW1 1112   0.970   0.704   1.767 -1.0745 -0.0883 -1.0342
  431SOL    HW2 1113   0.998   0.865   1.765  0.3496 -0.2877  0.3867
  432SOL     OW 1114   3.143   1.221   1.460 -0.1626 -0.0660  0.3499
  432SOL    HW1 1115   3.166   1.318   1.463  1.2362 -0.3752  2.3819
  432SOL    HW2 1116   3.225   1.167   1.480 -1.2113 -1.5946  0.7381
  433SOL     OW 1117   1.747   4.064   3.627 -0.3069 -0.0943  0.0317
  433SOL    HW1 1118   1.686   4.086   3.703 -0.3701  0.7332 -0.2542
  433SOL    HW2 1119   1.783   4.148   3.587  0.7800 -0.5606 -0.0098
  434SOL     OW 1120   0.173   4.868   2.365 -0.8014  0.2723  0.4916
  434SOL    HW1 1121   0.235   4.930   2.413 -1.1110 -0.4692  1.9076
  434SOL    HW2 1122   0.225   4.814   2.299 -0.4483  1.6533 -0.4162
  435SOL     OW 1123   0.622   4.748   3.054 -0.4048  0.1777  0.0001
  435SOL    HW1 1124   0.672   4.684   3.112 -0.2988  1.6860  1.6380
  435SOL    HW2 1125   0.676   4.832   3.043 -0.5816  0.0757 -2.0256
  436SOL     OW 1126   4.486   2.155   2.256 -0.3117 -0.0135 -0.2199
  436SOL    HW1 1127   4.538   2.139   2.340  0.7727  0.4857 -0.7686
  436SOL    HW2 1128   4.481   2.070   2.203  1.0924  0.2023 -0.7624
  437SOL     OW 1129   1.362   1.916   3.759  0.2601  0.0494 -0.0534
  437SOL    HW1 1130   1.401   2.005   3.783  0.5698 -0.4911  1.5034
  437SOL    HW2 1131   1.409   1.844   3.809 -1.0993 -0.8502 -0.0283
  438SOL     OW 1132   0.768   1.180   4.377 -0.2019  0.0387 -0.2684
  438SOL    HW1 1133   0.711   1.128   4.442  1.6086 -0.2700  1.1593
  438SOL    HW2 1134   0.838   1.119   4.339 -3.5373 -1.0386 -5.8975
  439SOL     OW 1135   2.004   1.226   1.095 -0.5033 -0.4484 -0.3635
  439SOL    HW1 1136   1.967   1.192   1.009  1.5154 -0.1230 -1.4350
  439SOL    HW2 1137   2.086   1.173   1.119 -1.8474 -1.5369  2.1953
  440SOL     OW 1138   4.454   1.516   3.845  0.5482 -0.2873 -0.4859
  440SOL    HW1 1139   4.414   1.485   3.932  0.4942  0.8990 -0.0803
  440SOL    HW2 1140   4.382   1.551   3.785  0.5538 -1.3142 -1.1234
  441SOL     OW 1141   0.474   0.749   4.396  0.2974 -0.1279 -0.2111
  441SOL    HW1 1142   0.464   0.707   4.306  0.7833  0.5237 -0.5841
  441SOL    HW2 1143   0.391   0.735   4.449  0.5819 -1.8493 -0.1797
  442SOL     OW 1144   2.127   0.256   2.838  0.2702  0.4379  0.4861
  442SOL    HW1 1145   2.098   0.161   2.844 -0.3205  0.3837 -1.9460
  442SOL    HW2 1146   2.175   0.283   2.922 -2.4298 -0.9663  2.6334
  443SOL     OW 1147   2.433   1.519   3.225 -0.0706  0.2827 -0.1987
  443SOL    HW1 1148   2.506   1.579   3.193  0.6303 -0.5618 -0.2201
  443SOL    HW2 1149   2.394   1.555   3.310  1.1552  0.1348  0.4374
  444SOL     OW 1150   0.441   0.340   0.240 -0.5628  0.4253  0.1171
  444SOL    HW1 1151   0.499   0.385   0.308 -0.3950  0.3588  0.0199
  444SOL    HW2 1152   0.346   0.368   0.253 -0.2562  2.2022 -1.0504
  445SOL     OW 1153   2.163   2.095   4.331  0.0464  0.1729  0.5332
  445SOL    HW1 1154   2.262   2.079   4.329  0.1865  1.0290 -0.8123
  445SOL    HW2 1155   2.137   2.141   4.415  0.9869  1.0528  0.3503
  446SOL     OW 1156   1.703   1.628   2.409 -0.1821 -0.1874 -0.0735
  446SOL    HW1 1157   1.694   1.538   2.451 -1.2079  0.0395  0.2284
  446SOL    HW2 1158   1.716   1.618   2.310  3.7010 -0.7860  0.3525
  447SOL     OW 1159   0.522   3.913   3.418  0.2553  1.0169 -0.2998
  447SOL    HW1 1160   0.549   3.927   3.514  0.3672 -0.1698 -0.1365
  447SOL    HW2 1161   0.596   3.867   3.370 -0.7626 -0.6805 -0.3034
  448SOL     OW 1162   4.759   1.121   3.382  0.2340  0.3100 -0.1292
  448SOL    HW1 1163   4.685   1.128   3.315  0.3346  1.1007 -0.1628
  448SOL    HW2 1164   4.729   1.159   3.469  1.2872  2.7011 -0.7257
  449SOL     OW 1165   3.010   1.336   1.010  0.1682 -0.5739 -0.1706
  449SOL    HW1 1166   2.978   1.378   1.095 -1.1729  2.9694 -2.1786
  449SOL    HW2 1167   3.057   1.251   1.030  0.3021  0.2871  4.1101
  450SOL     OW 1168   2.339   0.065   3.289  0.4414 -0.0624  0.1120
  450SOL    HW1 1169   2.358   0.113   3.375 -0.1438  0.4486 -0.0368
  450SOL    HW2 1170   2.413   0.001   3.270  0.2850 -0.6295  1.3142
  451SOL     OW 1171   0.285   1.214   3.353  0.0087  0.1735 -0.3605
  451SOL    HW1 1172   0.314   1.307   3.329 -0.5317 -0.0760 -2.1330
  451SOL    HW2 1173   0.189   1.202   3.330  0.1541 -0.9181 -0.4368
  452SOL     OW 1174   0.608   1.552   2.938 -0.1762  0.0368  0.2826
  452SOL    HW1 1175   0.683   1.496   2.972  0.6552  0.3685 -0.9448
  452SOL    HW2 1176   0.571   1.510   2.855 -0.6934  0.4108  0.3209
  453SOL     OW 1177   0.908   0.600   3.436  0.9623 -0.3776 -0.2661
  453SOL    HW1 1178   0.897   0.567   3.343  0.1488 -0.5940 -0.1042
  453SOL    HW2 1179   0.861   0.539   3.499  0.3468  0.4950  0.1444
  454SOL     OW 1180   0.815   1.939   3.047 -0.0694  0.0654 -0.0777
  454SOL    HW1 1181   0.847   1.927   3.141  1.2214  0.8171 -0.4070
  454SOL    HW2 1182   0.865   1.877   2.986  0.1242  0.6020 -0.4729
  455SOL     OW 1183   0.508   0.917   2.241  0.8602  0.0543  0.1768
  455SOL    HW1 1184   0.460   0.843   2.194  0.3443  0.7773 -0.4517
  455SOL    HW2 1185   0.592   0.881   2.281  1.7972 -0.3982 -2.0534
  456SOL     OW 1186   0.510   0.578   4.113  0.0159  0.1111 -0.6162
  456SOL    HW1 1187   0.415   0.594   4.085 -0.8118 -0.8600  1.3778
  456SOL    HW2 1188   0.534   0.483   4.092  0.5292  0.3288 -1.0258
  457SOL     OW 1189   0.245   0.474   2.392 -0.2665  0.3815  0.0048
  457SOL    HW1 1190   0.219   0.467   2.296 -0.2239  0.9452 -0.0477
  457SOL    HW2 1191   0.278   0.566   2.412  1.1174 -0.1307  0.2164
  458SOL     OW 1192   2.412   0.440   1.499  0.2528  0.1382 -0.6608
  458SOL    HW1 1193   2.355   0.360   1.482  0.8730 -0.3396 -0.5548
  458SOL    HW2 1194   2.507   0.417   1.477  0.9237 -0.1227  2.1524
  459SOL     OW 1195   3.820   3.533   3.693 -0.2206 -0.5703  0.0866
  459SOL    HW1 1196   3.737   3.506   3.742  0.0432  0.3044  1.0564
  459SOL    HW2 1197   3.848   3.624   3.724  1.0396 -0.8131 -0.3196
  460SOL     OW 1198   3.720   0.316   4.888  0.0638  0.1617  0.2853
  460SOL    HW1 1199   3.662   0.394   4.865 -0.5699 -0.1912  0.6781
  460SOL    HW2 1200   3.705   0.243   4.820 -0.1108 -0.0099  0.5078
  461SOL     OW 1201   1.251   1.255   1.427  0.5975  0.2502  0.3293
  461SOL    HW1 1202   1.211   1.347   1.430  0.2826  0.1105  2.8135
  461SOL    HW2 1203   1.178   1.187   1.436  0.8947 -0.2541 -0.8469
  462SOL     OW 1204   0.088   0.696   3.697 -0.0560  0.0433 -0.2058
  462SOL    HW1 1205   0.107   0.787   3.658 -1.0738  0.8250  1.0318
  462SOL    HW2 1206   0.064   0.706   3.794 -2.3422 -1.3071 -0.5644
  463SOL     OW 1207   4.348   4.112   2.654  0.5508 -0.4130  0.7564
  463SOL    HW1 1208   4.390   4.143   2.739 -0.1618  0.1293  0.9234
  463SOL    HW2 1209   4.297   4.187   2.612 -2.1725 -1.5419  1.7539
  464SOL     OW 1210   1.567   0.727   2.635  0.3345 -0.1201  0.3739
  464SOL    HW1 1211   1.515   0.649   2.670 -0.7930  0.6654  0.4954
  464SOL    HW2 1212   1.508   0.783   2.577  0.1581  2.3708  2.7634
  465SOL     OW 1213   0.771   4.990   3.299 -0.2733  0.0511  0.0609
  465SOL    HW1 1214   0.696   4.941   3.345 -0.7835 -1.0315 -1.8065
  465SOL    HW2 1215   0.858   4.962   3.338 -0.7815  0.8861  1.8776
  466SOL     OW 1216   4.597   2.591   2.413  0.1779  0.2069  0.4068
  466SOL    HW1 1217   4.644   2.665   2.462  0.0267 -0.0128  0.8938
  466SOL    HW2 1218   4.634   2.503   2.443  1.8426  0.1055 -1.6975
  467SOL     OW 1219   1.780   1.614   3.970 -0.0939 -0.1696  0.3932
  467SOL    HW1 1220   1.749   1.591   4.063 -0.8464 -0.4640  0.0794
  467SOL    HW2 1221   1.788   1.530   3.916  0.5719 -0.0218  0.2543
  468SOL     OW 1222   1.038   0.154   0.734  0.2135 -0.3818 -0.1440
  468SOL    HW1 1223   1.110   0.106   0.783 -0.3138  1.1791  2.3522
  468SOL    HW2 1224   0.964   0.090   0.711  1.0842 -1.4204 -0.1091
  469SOL     OW 1225   2.616   3.848   2.497 -0.4117 -0.1337 -0.1475
  469SOL    HW1 1226   2.535   3.902   2.476 -1.0554 -0.8535  0.4369
  469SOL    HW2 1227   2.602   3.753   2.469  0.1522 -0.3021  0.1159
  470SOL     OW 1228   2.181   2.097   1.906 -0.2390  0.3871 -0.1599
  470SOL    HW1 1229   2.207   2.043   1.987  0.8552 -0.3121 -0.9443
  470SOL    HW2 1230   2.250   2.166   1.888 -0.2236  0.2141 -0.7848
  471SOL     OW 1231   4.890   2.574   1.841 -0.4246  0.4360  0.8186
  471SOL    HW1 1232   4.822   2.554   1.770 -0.2857 -2.0400  1.3006
  471SOL    HW2 1233   4.857   2.542   1.929  0.6750  0.7448  1.3631
  472SOL     OW 1234   2.363   0.201   3.059  0.2796  0.5857 -0.0750
  472SOL    HW1 1235   2.334   0.149   3.139 -1.5956 -1.2454 -1.8272
  472SOL    HW2 1236   2.459   0.182   3.040  0.1869 -0.5995  0.5603
  473SOL     OW 1237   0.167   1.215   4.245  0.8570  0.1986  0.2078
  473SOL    HW1 1238   0.102   1.288   4.269  0.9691  1.0106 -1.7634
  473SOL    HW2 1239   0.240   1.213   4.312 -0.7934 -0.2699  2.0968
  474SOL     OW 1240   1.312   4.726   3.662  0.1367 -0.0095  0.4440
  474SOL    HW1 1241   1.305   4.821   3.630  1.1620  0.0166  0.2573
  474SOL    HW2 1242   1.308   4.723   3.761  1.1443  0.3541  0.5101
  475SOL     OW 1243   0.553   1.868   3.876  0.3112  0.2489  0.3614
  475SOL    HW1 1244   0.499   1.893   3.956  0.8897 -0.6044  1.0395
  475SOL    HW2 1245   0.650   1.874   3.897  0.4755  0.0311 -0.2870
  476SOL     OW 1246   1.862   1.948   2.653 -0.0007  0.0759 -0.8171
  476SOL    HW1 1247   1.920   2.007   2.709  1.0970 -1.9226  0.2241
  476SOL    HW2 1248   1.880   1.965   2.557 -0.4389  2.1068 -0.5970
  477SOL     OW 1249   0.089   1.732   2.773  0.0632 -0.1249 -0.4825
  477SOL    HW1 1250   0.128   1.653   2.726  0.5557  0.2863 -0.7778
  477SOL    HW2 1251   0.038   1.702   2.853  1.1886 -0.6625  0.0406
  478SOL     OW 1252   0.270   1.049   2.900  0.5914  0.0421 -0.0547
  478SOL    HW1 1253   0.359   1.009   2.878  0.2060 -0.6202 -0.4349
  478SOL    HW2 1254   0.282   1.146   2.923  0.9846  0.9679 -3.6151
  479SOL     OW 1255   2.863   4.428   3.119  0.2962 -0.1731 -0.1562
  479SOL    HW1 1256   2.836   4.340   3.157 -0.5063  0.0306 -0.2273
  479SOL    HW2 1257   2.914   4.480   3.188  0.8522 -0.7233 -0.1461
  480SOL     OW 1258   4.595   4.763   3.242  0.2725  0.1677  0.0417
  480SOL    HW1 1259   4.566   4.780   3.148 -0.8725 -0.1736  0.3262
  480SOL    HW2 1260   4.647   4.678   3.246  1.2252  0.7076 -0.4430
  481SOL     OW 1261   0.460   0.295   3.514  0.3907  0.1061  0.1309
  481SOL    HW1 1262   0.456   0.237   3.432  0.2185  0.8018 -0.3561
  481SOL    HW2 1263   0.435   0.388   3.491 -0.4347  0.1525  1.1428
  482SOL     OW 1264   0.045   3.196   3.398  0.4661  0.0803  0.3422
  482SOL    HW1 1265   0.074   3.283   3.435 -1.1584  0.1510  1.5289
  482SOL    HW2 1266   0.020   3.134   3.472 -2.6635  0.1489 -0.5114
  483SOL     OW 1267   1.312   0.503   2.205  0.0896  0.4437 -0.1371
  483SOL    HW1 1268   1.319   0.543   2.297  2.7031 -2.4969  1.1298
  483SOL    HW2 1269   1.403   0.478   2.172 -0.8135  1.0316 -3.4643
  484SOL     OW 1270   0.332   4.401   3.455 -0.3590  0.1498  0.5712
  484SOL    HW1 1271   0.377   4.411   3.366  2.1333 -0.9335  1.6036
  484SOL    HW2 1272   0.244   4.356   3.443  0.1947 -0.5487 -1.2987
  485SOL     OW 1273   4.865   2.997   3.548 -0.0965  0.1517  0.3349
  485SOL    HW1 1274   4.868   2.953   3.458  0.5304  0.2619  0.2978
  485SOL    HW2 1275   4.956   2.996   3.589 -0.5843 -0.8499  1.4489
  486SOL     OW 1276   0.053   4.786   3.860 -0.0199 -0.2057  0.5240
  486SOL    HW1 1277  -0.002   4.702   3.869  1.4125 -1.4543 -1.4249
  486SOL    HW2 1278  -0.004   4.859   3.822 -0.6893 -1.0936 -0.2432
  487SOL     OW 1279   1.009   2.351   2.342  0.4709  0.2570  0.1024
  487SOL    HW1 1280   0.971   2.394   2.260  0.9413 -1.8451 -1.2916
  487SOL    HW2 1281   1.106   2.330   2.327  0.3170 -1.0743  0.7812
  488SOL     OW 1282   0.988   0.183   4.865  0.0619  0.2786 -0.4954
  488SOL    HW1 1283   0.998   0.174   4.766  1.9013 -2.9487 -0.1399
  488SOL    HW2 1284   0.903   0.141   4.895  0.3258 -0.3222 -0.5725
  489SOL     OW 1285   0.416   1.438   4.111 -0.3458  0.0296  0.1451
  489SOL    HW1 1286   0.437   1.503   4.038 -1.4375  0.6160  0.3258
  489SOL    HW2 1287   0.381   1.487   4.191  0.2849 -0.6562  0.8563
  490SOL     OW 1288   3.350   0.244   3.133  0.2184  0.0820  0.4001
  490SOL    HW1 1289   3.277   0.264   3.199  0.4957 -0.4126  0.8700
  490SOL    HW2 1290   3.436   0.232   3.183  0.9305  2.0712 -0.2557
  491SOL     OW 1291   2.333   0.452   2.973 -0.5160 -0.4818  0.4988
  491SOL    HW1 1292   2.317   0.361   3.011  0.6711  0.3983  3.3513
  491SOL    HW2 1293   2.301   0.521   3.037 -0.6844  1.1569 -1.2671
  492SOL     OW 1294   2.614   1.372   4.016 -0.2440 -0.1449 -0.0682
  492SOL    HW1 1295   2.601   1.362   4.114 -0.8727 -1.2647 -0.2468
  492SOL    HW2 1296   2.676   1.448   3.998 -0.5883  0.4497  1.1638
  493SOL     OW 1297   0.669   3.437   3.427 -0.1775 -0.2728  0.0934
  493SOL    HW1 1298   0.737   3.505   3.453 -0.8481  1.1848 -1.6845
  493SOL    HW2 1299   0.604   3.424   3.502  2.1817 -2.0238  1.9997
  494SOL     OW 1300   0.844   1.888   3.916 -0.4229  0.1799  0.1053
  494SOL    HW1 1301   0.889   1.879   4.005 -0.6189  0.5859  0.2454
  494SOL    HW2 1302   0.850   1.983   3.885  1.2378 -0.2762 -1.1531
  495SOL     OW 1303   1.555   2.064   1.661  0.2015  0.0758 -0.4851
  495SOL    HW1 1304   1.554   2.163   1.647 -1.6825 -0.0110 -1.1974
  495SOL    HW2 1305   1.574   2.044   1.757  0.4810  1.1299 -0.3146
  496SOL     OW 1306   2.360   0.889   2.988  0.0182 -0.0227  0.3432
  496SOL    HW1 1307   2.447   0.877   2.942  0.3873  1.2253  0.6672
  496SOL    HW2 1308   2.367   0.858   3.083  0.8180  2.1038  1.0362
  497SOL     OW 1309   3.323   0.415   2.924 -0.4342  0.4984  0.4924
  497SOL    HW1 1310   3.402   0.416   2.863 -1.8831 -0.0339 -1.4827
  497SOL    HW2 1311   3.337   0.347   2.996  0.1634 -0.9221 -0.9098
  498SOL     OW 1312   0.199   1.978   2.786  0.0963 -0.2179 -0.5889
  498SOL    HW1 1313   0.142   1.901   2.759  2.0526 -2.1026  0.2868
  498SOL    HW2 1314   0.292   1.964   2.753  0.7165  1.3475  0.3650
  499SOL     OW 1315   0.670   1.284   3.422 -0.0416 -0.1802  0.8409
  499SOL    HW1 1316   0.642   1.375   3.393 -1.2884 -1.2700 -1.6327
  499SOL    HW2 1317   0.768   1.283   3.440 -0.1410  1.7977  1.7146
  500SOL     OW 1318   0.230   2.079   3.871  0.5398 -0.3117  0.1666
  500SOL    HW1 1319   0.144   2.092   3.823  1.1743 -1.3113 -1.3040
  500SOL    HW2 1320   0.242   1.982   3.893  0.6913 -0.0007  1.5652
  501SOL     OW 1321   0.323   3.655   2.306 -0.0882 -0.1340 -0.0312
  501SOL    HW1 1322   0.281   3.746   2.309  0.5899  0.1904 -0.0899
  501SOL    HW2 1323   0.326   3.622   2.211 -1.3104 -0.6940  0.1108
  502SOL     OW 1324   1.996   4.618   4.565 -0.0322 -0.3333 -0.6452
  502SOL    HW1 1325   1.965   4.702   4.608  2.3811  0.1184  0.3589
  502SOL    HW2 1326   1.955   4.609   4.474 -2.9827  0.1467  0.5290
  503SOL     OW 1327   0.143   2.424   3.855 -0.2855 -0.4480  0.3038
  503SOL    HW1 1328   0.098   2.424   3.944  0.0706 -1.1852  0.4997
  503SOL    HW2 1329   0.243   2.426   3.868 -0.2238 -0.9065 -0.0590
  504SOL     OW 1330   0.645   4.357   3.406 -0.1848  0.0230 -0.1110
  504SOL    HW1 1331   0.687   4.305   3.481 -0.5960 -1.4107 -0.8454
  504SOL    HW2 1332   0.573   4.303   3.364 -1.7570  1.8369  0.1168
  505SOL     OW 1333   1.904   2.671   0.548 -0.6558  0.4105 -0.3173
  505SOL    HW1 1334   1.973   2.704   0.483 -0.3144  1.4482  0.5510
  505SOL    HW2 1335   1.926   2.577   0.574 -0.9528 -0.1269 -1.8950
  506SOL     OW 1336   0.877   0.981   2.921  1.0001 -0.1153 -0.1698
  506SOL    HW1 1337   0.831   0.915   2.861 -0.0519 -0.0689  0.5471
  506SOL    HW2 1338   0.871   0.950   3.016 -1.3142  1.8777  0.4800
  507SOL     OW 1339   4.236   2.621   2.635  0.2395 -0.2866  0.0443
  507SOL    HW1 1340   4.289   2.667   2.564  0.9319 -0.4062  0.4760
  507SOL    HW2 1341   4.233   2.677   2.717  0.0043 -0.4410  0.1435
  508SOL     OW 1342   0.402   2.157   2.602 -0.0293  0.0166  0.2611
  508SOL    HW1 1343   0.467   2.233   2.599 -1.1829  1.0662  0.9922
  508SOL    HW2 1344   0.320   2.183   2.551 -1.1736  0.0022  2.0346
  509SOL     OW 1345   0.450   3.526   4.511 -0.6810  0.0215  0.0236
  509SOL    HW1 1346   0.450   3.608   4.568  2.4070  1.6825 -2.0554
  509SOL    HW2 1347   0.493   3.451   4.561 -0.2112  0.7413  0.7374
  510SOL     OW 1348   2.432   0.493   2.662 -0.3766  0.0321 -0.6044
  510SOL    HW1 1349   2.456   0.398   2.643 -0.7669  0.0281 -1.0785
  510SOL    HW2 1350   2.410   0.503   2.759 -0.0652 -0.3032 -0.4980
  511SOL     OW 1351   1.012   2.632   3.993 -0.5794  0.4985 -0.2546
  511SOL    HW1 1352   1.023   2.727   4.023 -0.7709  0.9083 -1.4392
  511SOL    HW2 1353   1.064   2.618   3.909 -0.8510 -0.3489 -0.2869
  512SOL     OW 1354   1.978   1.291   1.759 -0.2837 -0.3794 -0.5310
  512SOL    HW1 1355   1.989   1.211   1.699 -0.8456 -1.7519  1.1135
  512SOL    HW2 1356   1.884   1.324   1.753 -0.4414 -0.7489 -0.1502
  513SOL     OW 1357   0.074   1.674   2.106  0.3722  0.6633  0.3145
  513SOL    HW1 1358   0.166   1.707   2.086  0.5516  0.0801  0.1813
  513SOL    HW2 1359   0.039   1.723   2.186  0.1327  2.1009 -0.6201
  514SOL     OW 1360   2.470   4.967   2.914  0.6467 -0.9410 -0.3394
  514SOL    HW1 1361   2.471   4.955   3.013 -2.4115  0.2886 -0.0571
  514SOL    HW2 1362   2.505   5.057   2.891 -0.8199 -0.2977 -0.1315
  515SOL     OW 1363   4.710   1.795   3.338 -0.0993  0.0519 -0.8283
  515SOL    HW1 1364   4.734   1.713   3.389 -0.0974 -0.3212 -1.4216
  515SOL    HW2 1365   4.726   1.876   3.395 -0.1525 -0.3591 -0.2248
  516SOL     OW 1366   4.947   0.905   0.934  0.3149  0.1793  0.3914
  516SOL    HW1 1367   4.924   0.830   0.995 -0.5567  1.1388  1.2832
  516SOL    HW2 1368   5.026   0.955   0.970 -0.1710  0.7182  0.7300
  517SOL     OW 1369   4.152   1.914   1.886 -0.0052 -0.0138  0.3216
  517SOL    HW1 1370   4.235   1.969   1.882 -0.0783  0.0822  0.1050
  517SOL    HW2 1371   4.072   1.975   1.883 -0.0840 -0.1180  0.3111
  518SOL     OW 1372   4.451   1.578   2.726  0.0153 -0.0043  0.0660
  518SOL    HW1 1373   4.376   1.561   2.661  0.3758 -0.4355 -0.2403
  518SOL    HW2 1374   4.534   1.603   2.676  0.7187 -1.8534  0.2490
  519SOL     OW 1375   1.929   4.630   3.240  0.3915 -0.5676 -0.1866
  519SOL    HW1 1376   1.843   4.591   3.209  0.1050 -0.0179 -0.0964
  519SOL    HW2 1377   2.005   4.590   3.188  0.2407 -2.2047  0.7955
  520SOL     OW 1378   0.917   4.792   3.717 -0.2916  1.0668  0.4412
  520SOL    HW1 1379   0.966   4.878   3.706 -0.7876  1.2770 -0.2174
  520SOL    HW2 1380   0.938   4.752   3.806  0.7442  1.3547  0.3348
  521SOL     OW 1381   1.367   1.679   4.410  0.1214 -0.3995 -0.0232
  521SOL    HW1 1382   1.332   1.739   4.482  0.9566 -0.0973  0.1408
  521SOL    HW2 1383   1.422   1.732   4.346  0.6344 -0.9378 -0.0375
  522SOL     OW 1384   4.749   2.023   3.496  0.0903  0.7676 -0.2859
  522SOL    HW1 1385   4.844   2.035   3.526 -0.5300  2.3162  1.2295
  522SOL    HW2 1386   4.716   2.108   3.455 -1.3058  1.0425  1.2876
  523SOL     OW 1387   4.950   1.028   3.860  0.1130  0.2072  0.4385
  523SOL    HW1 1388   5.034   0.976   3.869 -1.1488 -1.6700  2.6950
  523SOL    HW2 1389   4.881   0.973   3.812 -1.7085 -1.1333  4.1322
  524SOL     OW 1390   1.086   0.724   3.152 -0.0974 -0.3430  0.1049
  524SOL    HW1 1391   1.053   0.808   3.194  0.5730 -0.5328  1.0267
  524SOL    HW2 1392   1.020   0.650   3.169 -0.2565 -0.2181  0.0435
  525SOL     OW 1393   4.987   2.135   3.495  0.1046 -0.5261 -0.2876
  525SOL    HW1 1394   5.079   2.099   3.478  0.9215  1.6449 -0.8742
  525SOL    HW2 1395   4.989   2.192   3.577 -0.7503 -0.5078 -0.2761
  526SOL     OW 1396   0.316   3.989   2.911 -0.2970 -0.2801 -0.0506
  526SOL    HW1 1397   0.287   4.084   2.910  0.8999  0.1006 -0.6954
  526SOL    HW2 1398   0.375   3.971   2.832 -0.3924 -1.5244  0.1325
  527SOL     OW 1399   0.361   0.522   3.349 -0.5479 -0.2035 -0.6411
  527SOL    HW1 1400   0.355   0.611   3.303 -0.0268 -0.6637 -1.6276
  527SOL    HW2 1401   0.270   0.484   3.360 -0.8125  0.6228  0.1475
  528SOL     OW 1402   0.456   4.839   3.298 -0.0691 -0.1360 -0.0902
  528SOL    HW1 1403   0.464   4.817   3.201  0.2806  0.7957 -0.2826
  528SOL    HW2 1404   0.450   4.754   3.351  1.1710 -0.6869 -0.7907
  529SOL     OW 1405   1.802   0.641   1.539 -0.0866 -0.2440  0.0317
  529SOL    HW1 1406   1.726   0.698   1.508 -0.5505 -0.1058  1.3812
  529SOL    HW2 1407   1.888   0.689   1.521 -0.1997 -0.8280 -2.4289
  530SOL     OW 1408   1.234   2.386   1.693 -0.2180  0.2267 -0.0787
  530SOL    HW1 1409   1.146   2.432   1.678  0.1180  1.0299  0.3710
  530SOL    HW2 1410   1.308   2.451   1.683  0.2516 -0.1359  0.8602
  531SOL     OW 1411   1.999   4.482   3.653 -0.0097 -0.3938  0.2395
  531SOL    HW1 1412   2.005   4.561   3.592 -0.2059  0.0792  0.8305
  531SOL    HW2 1413   2.087   4.436   3.657  0.8263  1.2305  1.8043
  532SOL     OW 1414   0.625   1.092   1.167  0.0416 -0.2394 -0.2327
  532SOL    HW1 1415   0.649   1.175   1.217  2.3506  0.0882 -1.7166
  532SOL    HW2 1416   0.547   1.111   1.107  0.3878  0.8137 -0.3777
  533SOL     OW 1417   1.605   1.708   1.723 -0.2418 -0.3837 -0.3032
  533SOL    HW1 1418   1.526   1.734   1.778 -0.3775 -0.1187 -0.6210
  533SOL    HW2 1419   1.591   1.737   1.628  0.6469  0.5150 -0.1781
  534SOL     OW 1420   0.743   1.632   3.956  0.2515  0.5575 -0.4102
  534SOL    HW1 1421   0.777   1.715   3.911  0.0154  0.3132 -1.0601
  534SOL    HW2 1422   0.650   1.613   3.925  0.3213  0.0235 -0.3032
  535SOL     OW 1423   0.308   3.423   1.157  0.7083  0.0002 -0.1565
  535SOL    HW1 1424   0.280   3.386   1.246  1.0197 -0.6250 -0.3211
  535SOL    HW2 1425   0.278   3.519   1.151  0.9204  0.1366  0.7306
  536SOL     OW 1426   3.462   1.782   3.746 -0.3008 -0.2212 -0.3238
  536SOL    HW1 1427   3.395   1.836   3.798 -2.6267 -0.4498 -2.8329
  536SOL    HW2 1428   3.415   1.735   3.672  2.3248 -2.5203 -0.6710
  537SOL     OW 1429   0.189   1.537   2.611  0.2587 -0.7674  0.1272
  537SOL    HW1 1430   0.113   1.492   2.564  0.0020  0.3176 -0.5181
  537SOL    HW2 1431   0.230   1.606   2.552  0.1188  0.4246  1.3527
  538SOL     OW 1432   1.705   0.077   1.928 -0.1659 -0.1769 -0.3623
  538SOL    HW1 1433   1.621   0.064   1.980  0.2106 -2.1328 -0.1733
  538SOL    HW2 1434   1.784   0.076   1.989  0.0642  1.4496 -0.5620
  539SOL     OW 1435   1.244   0.432   0.906 -0.0227  0.0038 -0.0051
  539SOL    HW1 1436   1.245   0.387   0.995 -1.9156 -0.4677 -0.1914
  539SOL    HW2 1437   1.155   0.419   0.863  0.9068  0.0351 -2.0639
  540SOL     OW 1438   3.693   1.491   0.761  0.2181 -0.3866  0.2472
  540SOL    HW1 1439   3.593   1.487   0.771  0.2546 -0.2159  0.7050
  540SOL    HW2 1440   3.735   1.422   0.820  0.3017 -1.7658 -1.3561
  541SOL     OW 1441   1.154   1.502   1.384 -0.2096  0.4716  0.4421
  541SOL    HW1 1442   1.153   1.598   1.414 -0.0380  0.5629  0.1599
  541SOL    HW2 1443   1.113   1.495   1.294  0.6818  0.4306  0.0241
  542SOL     OW 1444   3.300   2.098   2.993 -0.4303 -0.1205  0.6335
  542SOL    HW1 1445   3.306   2.070   2.897 -2.0995 -1.0837  0.7738
  542SOL    HW2 1446   3.387   2.079   3.039  0.6563  1.0698 -0.8420
  543SOL     OW 1447   4.816   3.415   3.474  0.3225 -0.2409  0.1179
  543SOL    HW1 1448   4.797   3.454   3.564  0.6641  0.3204 -0.0499
  543SOL    HW2 1449   4.738   3.359   3.445 -0.6851  1.2459 -0.1433
  544SOL     OW 1450   1.170   1.419   2.550  0.3879 -0.4349 -0.1126
  544SOL    HW1 1451   1.206   1.482   2.481  0.1539 -0.3469 -0.1547
  544SOL    HW2 1452   1.132   1.338   2.505  0.1601 -0.3400 -0.0953
  545SOL     OW 1453   0.783   4.270   3.659  0.1575  0.0055 -0.1124
  545SOL    HW1 1454   0.695   4.287   3.703  0.0816 -0.7868  0.0627
  545SOL    HW2 1455   0.856   4.301   3.720  0.0741 -1.6511  0.8982
  546SOL     OW 1456   0.298   4.720   3.797 -0.0811 -0.4542  0.3096
  546SOL    HW1 1457   0.342   4.794   3.748 -0.3246 -0.8734 -0.5523
  546SOL    HW2 1458   0.201   4.741   3.811 -0.1890 -0.6821 -0.0860
  547SOL     OW 1459   0.096   2.535   2.877  0.1355 -0.0608 -0.6152
  547SOL    HW1 1460   0.101   2.437   2.860 -1.2884 -0.4213  0.7420
  547SOL    HW2 1461   0.047   2.551   2.963  1.9064  1.7769  0.1450
  548SOL     OW 1462   0.453   2.301   3.430 -0.6626 -0.0837 -0.0831
  548SOL    HW1 1463   0.509   2.357   3.369 -0.1099  0.7761  1.1558
  548SOL    HW2 1464   0.364   2.283   3.388 -0.0923 -0.0263 -1.3681
  549SOL     OW 1465   2.189   0.684   2.671  0.7005  0.1263  0.1241
  549SOL    HW1 1466   2.179   0.585   2.659 -0.7412  0.2379  0.2149
  549SOL    HW2 1467   2.267   0.717   2.617  0.6239 -0.9221 -0.6492
  550SOL     OW 1468   3.394   0.304   3.849 -0.5595  0.0302  0.1142
  550SOL    HW1 1469   3.332   0.382   3.840  0.3464  0.6218 -1.2981
  550SOL    HW2 1470   3.486   0.331   3.821 -0.0807 -1.3612  0.2779
  551SOL     OW 1471   1.544   4.660   2.578  0.8856  0.5812 -0.3076
  551SOL    HW1 1472   1.475   4.592   2.601  0.0844  0.6228 -2.3902
  551SOL    HW2 1473   1.628   4.615   2.548  2.0636  0.5196  2.7356
  552SOL     OW 1474   0.562   1.117   1.732  0.0841  0.2810  0.3521
  552SOL    HW1 1475   0.595   1.022   1.730 -2.3209 -0.6209  0.7124
  552SOL    HW2 1476   0.466   1.119   1.760  0.5375  2.9846  2.0900
  553SOL     OW 1477   0.377   1.849   1.780 -0.0328  0.1188 -0.1203
  553SOL    HW1 1478   0.322   1.932   1.795 -2.2728 -1.1722 -0.7962
  553SOL    HW2 1479   0.381   1.797   1.866  0.7001  0.5156  0.0937
  554SOL     OW 1480   5.004   2.048   4.200  0.2789 -0.5564  0.2203
  554SOL    HW1 1481   4.920   2.024   4.249  0.7631 -0.7125  0.9941
  554SOL    HW2 1482   5.017   1.985   4.123  0.8453 -1.9923  1.4431
  555SOL     OW 1483   4.741   4.410   4.693  0.2477  0.1044  0.4191
  555SOL    HW1 1484   4.816   4.401   4.629 -0.2083 -2.2996  0.1049
  555SOL    HW2 1485   4.776   4.433   4.784  1.2655 -0.1079  0.0842
  556SOL     OW 1486   0.080   1.503   4.772 -0.1895 -0.1628  0.3274
  556SOL    HW1 1487   0.040   1.420   4.812 -0.7219 -0.7591 -1.3538
  556SOL    HW2 1488   0.067   1.580   4.835 -1.3857 -0.9602  1.1056
  557SOL     OW 1489   0.928   1.858   1.294  0.0880 -0.3244  0.0761
  557SOL    HW1 1490   0.841   1.811   1.283  1.3164 -2.5346 -0.8112
  557SOL    HW2 1491   0.954   1.902   1.207 -0.8468  1.7535  0.7796
  558SOL     OW 1492   2.340   0.645   1.326 -0.3627 -0.1753  0.6881
  558SOL    HW1 1493   2.358   0.586   1.405 -1.1134  2.3878  2.9418
  558SOL    HW2 1494   2.284   0.596   1.260 -1.8312 -1.6989  2.9197
  559SOL     OW 1495   1.377   0.918   4.569  0.2428  0.1496  0.2035
  559SOL    HW1 1496   1.278   0.919   4.561  0.0251 -2.8222  1.2032
  559SOL    HW2 1497   1.403   0.910   4.665  1.4141  0.2658 -0.0865
  560SOL     OW 1498   1.289   0.209   4.910 -0.4267  0.6489 -0.0048
  560SOL    HW1 1499   1.189   0.217   4.911 -0.3195  2.7016 -0.6323
  560SOL    HW2 1500   1.323   0.206   5.004 -1.0524  0.1987  0.2151
  561SOL     OW 1501   4.718   4.373   4.232  0.3522  0.3716 -0.2619
  561SOL    HW1 1502   4.662   4.308   4.284  0.1273  2.1780  1.8992
  561SOL    HW2 1503   4.658   4.435   4.180  0.5265 -0.1805 -1.1538
  562SOL     OW 1504   2.444   1.122   4.993 -0.5819 -0.4503  0.0982
  562SOL    HW1 1505   2.487   1.197   5.043 -0.7514 -1.4003  1.7139
  562SOL    HW2 1506   2.346   1.139   4.985 -0.6744 -0.6595  0.7664
  563SOL     OW 1507   1.227   0.337   1.172  0.0100 -0.0289 -0.4518
  563SOL    HW1 1508   1.235   0.432   1.202 -3.5394  0.3080 -0.1837
  563SOL    HW2 1509   1.266   0.276   1.241 -1.0086  1.0881  1.1588
  564SOL     OW 1510   1.687   5.003   4.106  0.6786  0.3416 -0.0086
  564SOL    HW1 1511   1.776   5.019   4.063 -0.7409  2.2445 -2.5233
  564SOL    HW2 1512   1.674   5.066   4.182  1.0258  0.8482 -0.3689
  565SOL     OW 1513   0.466   0.885   4.754 -0.1426  0.4588 -0.1309
  565SOL    HW1 1514   0.438   0.870   4.849  0.2400 -1.5428 -0.2927
  565SOL    HW2 1515   0.397   0.845   4.693  0.7965 -0.4691 -0.6154
  566SOL     OW 1516   1.631   3.470   4.555 -0.2306  0.9071  0.2653
  566SOL    HW1 1517   1.685   3.549   4.585  0.1281  0.6933  0.1910
  566SOL    HW2 1518   1.690   3.389   4.549  0.1938  1.2916 -2.7621
  567SOL     OW 1519   0.012   4.994   4.556 -0.5435 -0.4305  0.3401
  567SOL    HW1 1520  -0.081   5.028   4.576  0.3051  1.4501  1.3791
  567SOL    HW2 1521   0.015   4.959   4.463 -2.3317 -0.6544  0.3215
  568SOL     OW 1522   4.247   2.553   4.699 -0.0182 -0.1933 -0.2956
  568SOL    HW1 1523   4.170   2.573   4.760 -0.1986 -1.7219  0.0215
  568SOL    HW2 1524   4.290   2.638   4.671  0.3541  0.5657  2.3437
  569SOL     OW 1525   0.395   0.679   0.410 -0.1821 -0.3696  0.3265
  569SOL    HW1 1526   0.485   0.639   0.396 -0.2210 -0.0726 -0.8162
  569SOL    HW2 1527   0.399   0.778   0.396 -0.7123 -0.3729  0.1119
  570SOL     OW 1528   4.927   1.987   3.901  0.2930 -0.1112  0.1883
  570SOL    HW1 1529   4.845   2.032   3.936  0.2089  2.0591 -2.4902
  570SOL    HW2 1530   4.924   1.890   3.924 -2.5410  0.0777  0.9789
  571SOL     OW 1531   2.947   0.044   4.431  0.4136  0.2489  0.3133
  571SOL    HW1 1532   2.928   0.076   4.524  2.2327 -2.0409  1.5869
  571SOL    HW2 1533   3.045   0.023   4.423  0.0334 -0.9908 -1.6451
  572SOL     OW 1534   0.436   1.912   2.681 -0.2737 -0.1865 -0.2481
  572SOL    HW1 1535   0.504   1.893   2.752 -1.5535 -0.1448  1.0550
  572SOL    HW2 1536   0.436   2.009   2.659  1.0182 -0.3944 -1.2928
  573SOL     OW 1537   1.861   2.033   0.121 -0.7326 -0.2860  0.3644
  573SOL    HW1 1538   1.869   2.022   0.220  0.6760  0.1314  0.3248
  573SOL    HW2 1539   1.775   2.079   0.099 -0.6730  0.3764  1.4602
  574SOL     OW 1540   2.695   0.593   2.519 -0.3715  0.0209 -0.3447
  574SOL    HW1 1541   2.687   0.608   2.420  1.2041 -1.3999 -0.7521
  574SOL    HW2 1542   2.605   0.578   2.558 -1.1957  2.1921 -1.2503
  575SOL     OW 1543   1.617   4.790   3.471  0.5597 -0.4065  0.1410
  575SOL    HW1 1544   1.655   4.720   3.531 -0.2839  0.2442  1.5097
  575SOL    HW2 1545   1.549   4.749   3.411  0.6387 -0.9025  0.3849
  576SOL     OW 1546   1.546   0.647   3.815 -0.1490 -0.4987  0.6924
  576SOL    HW1 1547   1.501   0.560   3.835 -1.3714 -0.3447 -1.0936
  576SOL    HW2 1548   1.512   0.683   3.728  1.5883  0.9393  0.5361
  577SOL     OW 1549   0.272   1.561   1.143 -0.2739 -0.3587  0.2628
  577SOL    HW1 1550   0.286   1.598   1.235 -1.9833  0.3638  0.2707
  577SOL    HW2 1551   0.311   1.623   1.076 -0.5288 -0.0328  0.4165
  578SOL     OW 1552   1.285   0.705   0.559  0.0555  0.4098  1.0112
  578SOL    HW1 1553   1.266   0.608   0.551 -0.9520  0.7249 -0.9401
  578SOL    HW2 1554   1.201   0.757   0.543  0.3578  1.6123  2.9714
  579SOL     OW 1555   0.651   1.531   2.506  0.0189  0.3488  0.3847
  579SOL    HW1 1556   0.691   1.544   2.416 -1.3503 -0.7849 -0.4135
  579SOL    HW2 1557   0.674   1.440   2.540 -0.5696  0.2838  0.6141
  580SOL     OW 1558   2.088   0.886   3.314 -0.4715 -0.0508 -0.2458
  580SOL    HW1 1559   2.159   0.877   3.245 -2.1306  0.6203 -2.1465
  580SOL    HW2 1560   2.129   0.912   3.402  1.8632 -2.5865 -0.4901
  581SOL     OW 1561   4.828   0.382   3.680 -0.0068  0.1723  0.1708
  581SOL    HW1 1562   4.757   0.324   3.720 -0.5885  2.3229  2.4944
  581SOL    HW2 1563   4.913   0.370   3.731  0.0106  0.9675  0.3306
  582SOL     OW 1564   1.310   1.416   4.370  0.5348  0.1396  0.0649
  582SOL    HW1 1565   1.326   1.515   4.374 -1.1896  0.5799 -2.1858
  582SOL    HW2 1566   1.377   1.373   4.310 -0.3947  0.4143 -1.2061
  583SOL     OW 1567   1.120   1.218   0.636  0.7209  0.0453 -0.9540
  583SOL    HW1 1568   1.174   1.140   0.605  2.2734 -0.2627  2.1666
  583SOL    HW2 1569   1.158   1.302   0.598  0.0049 -0.5220 -3.0707
  584SOL     OW 1570   0.510   2.872   1.056  0.4249  0.2685 -0.1201
  584SOL    HW1 1571   0.460   2.834   1.134  0.2432 -0.0057 -0.3706
  584SOL    HW2 1572   0.586   2.928   1.090  0.1558  0.4144  0.2587
  585SOL     OW 1573   1.745   0.340   3.171 -0.4772  0.0572  0.7243
  585SOL    HW1 1574   1.829   0.343   3.224 -1.3113  2.8301  2.0418
  585SOL    HW2 1575   1.697   0.254   3.189  0.0100  0.2575  3.3412
  586SOL     OW 1576   4.391   4.900   3.963  0.1061  0.4936 -0.1266
  586SOL    HW1 1577   4.344   4.842   4.029  2.3277 -0.6006  0.6160
  586SOL    HW2 1578   4.347   4.891   3.873 -1.6941  0.3950  0.7232
  587SOL     OW 1579   0.834   0.584   1.102 -0.4162 -0.0859  0.1766
  587SOL    HW1 1580   0.772   0.661   1.121 -0.7707 -0.6135  1.2201
  587SOL    HW2 1581   0.812   0.546   1.012  1.4538  2.6149 -1.5704
  588SOL     OW 1582   0.204   5.010   3.988  0.1051 -0.0428  0.5048
  588SOL    HW1 1583   0.176   4.920   3.956  2.0356 -1.1739  1.8680
  588SOL    HW2 1584   0.187   5.018   4.086 -0.8048  1.4290  0.2676
  589SOL     OW 1585   0.818   0.415   3.616  0.0958 -0.4176  0.0655
  589SOL    HW1 1586   0.823   0.458   3.706 -1.6929 -0.3599  0.1654
  589SOL    HW2 1587   0.775   0.325   3.624  0.1689 -0.5277 -0.6944
  590SOL     OW 1588   5.030   1.257   4.043 -0.0709  0.0097 -0.3996
  590SOL    HW1 1589   5.021   1.203   3.960  0.9947 -0.3158 -0.3090
  590SOL    HW2 1590   5.120   1.242   4.084  0.0377  1.4166 -0.0643
  591SOL     OW 1591   1.402   2.085   3.241 -0.0099  0.0607 -0.3934
  591SOL    HW1 1592   1.418   1.987   3.226  0.0116  0.1844 -1.2121
  591SOL    HW2 1593   1.430   2.109   3.334 -0.0190 -0.7086 -0.1799
  592SOL     OW 1594   5.021   1.740   0.258  0.3526  0.3753 -0.2784
  592SOL    HW1 1595   5.112   1.777   0.275 -0.5170  2.2189  0.6664
  592SOL    HW2 1596   5.000   1.744   0.160  1.0612  0.4499 -0.4293
  593SOL     OW 1597   2.906   1.462   1.251  0.1378 -1.0953  0.2835
  593SOL    HW1 1598   2.935   1.542   1.303  1.1326 -0.5480 -1.0550
  593SOL    HW2 1599   2.806   1.463   1.241  0.0162 -0.7393  1.3754
  594SOL     OW 1600   4.711   1.605   3.111  0.3503 -0.3189  0.0425
  594SOL    HW1 1601   4.734   1.645   3.200 -1.0432  0.2848  0.1559
  594SOL    HW2 1602   4.639   1.537   3.122 -1.0635  0.9775 -0.7947
  595SOL     OW 1603   4.940   0.553   4.773  0.3900 -0.5104 -0.5573
  595SOL    HW1 1604   4.869   0.572   4.841  0.6338  0.3190 -0.5221
  595SOL    HW2 1605   5.007   0.490   4.812 -0.0043 -0.8234 -0.3804
  596SOL     OW 1606   4.782   2.487   2.091 -0.5625  0.3456  1.0772
  596SOL    HW1 1607   4.695   2.533   2.106 -0.4144  1.0149 -0.0366
  596SOL    HW2 1608   4.772   2.390   2.112 -1.3869  0.5434  1.6272
  597SOL     OW 1609   0.804   0.024   4.336  0.3109  0.0108 -0.1302
  597SOL    HW1 1610   0.710   0.004   4.365  1.0878 -1.8770  1.2779
  597SOL    HW2 1611   0.824   0.121   4.354 -1.3961  0.4922 -0.6412
  598SOL     OW 1612   4.760   4.971   3.326 -0.1128  0.1129 -0.2930
  598SOL    HW1 1613   4.830   4.929   3.383 -0.9262  0.4184  0.9595
  598SOL    HW2 1614   4.708   4.900   3.278  0.4245 -0.1569 -0.4800
  599SOL     OW 1615   1.697   4.269   3.984 -0.1184 -0.5268 -0.3552
  599SOL    HW1 1616   1.779   4.320   3.958  0.7144 -0.7619  1.5818
  599SOL    HW2 1617   1.674   4.204   3.913  0.0379  1.0641 -1.9384
  600SOL     OW 1618   2.115   0.111   0.761 -0.0490  0.1871  0.4314
  600SOL    HW1 1619   2.130   0.119   0.663 -1.6170 -1.9850 -0.0642
  600SOL    HW2 1620   2.118   0.201   0.803 -0.8230  1.3407 -1.8407
  601SOL     OW 1621   1.360   2.319   3.568 -0.3504 -0.6386  0.5443
  601SOL    HW1 1622   1.324   2.351   3.655  0.7141 -0.5887  0.9721
  601SOL    HW2 1623   1.374   2.397   3.507 -0.6253 -0.6215  0.5012
  602SOL     OW 1624   4.251   0.094   4.715 -0.4105  0.1097 -0.0891
  602SOL    HW1 1625   4.323   0.154   4.680  0.2550 -1.9401 -2.5830
  602SOL    HW2 1626   4.162   0.140   4.708  0.0515  0.8225 -2.0082
  603SOL     OW 1627   2.246   0.086   3.693  0.7023  0.4151  0.4267
  603SOL    HW1 1628   2.290   0.160   3.642  0.8928  0.1631  0.2248
  603SOL    HW2 1629   2.171   0.048   3.639  3.1896 -2.3960 -1.4291
  604SOL     OW 1630   0.892   1.265   3.740 -0.0461 -0.2169  0.5546
  604SOL    HW1 1631   0.970   1.283   3.800 -1.5180  1.7373  1.9787
  604SOL    HW2 1632   0.867   1.349   3.692 -0.5118 -1.1369 -0.8729
  605SOL     OW 1633   0.417   4.678   4.746 -0.1518 -0.4796 -0.1089
  605SOL    HW1 1634   0.454   4.689   4.839 -0.2678  0.0112 -0.1156
  605SOL    HW2 1635   0.450   4.592   4.707 -0.4964 -0.9242  0.5658
  606SOL     OW 1636   0.538   0.606   3.759 -0.2508 -0.1308  0.1688
  606SOL    HW1 1637   0.482   0.524   3.753 -1.9910  0.6547  3.3013
  606SOL    HW2 1638   0.556   0.641   3.667 -2.5867 -1.9539 -1.0938
  607SOL     OW 1639   1.992   1.372   2.120  0.0394 -0.3648 -0.0958
  607SOL    HW1 1640   1.975   1.431   2.199 -0.4473  0.1574 -0.5867
  607SOL    HW2 1641   2.082   1.330   2.129  1.7538  2.8100 -1.1981
  608SOL     OW 1642   4.051   3.732   4.883  0.3480 -0.2581  0.3869
  608SOL    HW1 1643   4.059   3.761   4.979 -0.3674 -2.1302  1.0595
  608SOL    HW2 1644   4.018   3.808   4.828 -0.2722  0.5467  1.8212
  609SOL     OW 1645   2.099   1.010   0.384  0.0775  0.3709 -0.1261
  609SOL    HW1 1646   2.033   0.966   0.324  0.9994  0.6006 -1.3537
  609SOL    HW2 1647   2.147   0.940   0.438  0.0195  0.0580 -0.4803
  610SOL     OW 1648   2.927   4.956   4.193  0.9978  0.2687 -0.4757
  610SOL    HW1 1649   2.888   4.999   4.275 -0.7363  0.2319 -1.2299
  610SOL    HW2 1650   2.984   4.879   4.220  1.6155  1.1235  0.7543
  611SOL     OW 1651   1.439   1.490   4.608 -0.2142 -0.4312 -0.7432
  611SOL    HW1 1652   1.395   1.562   4.553  1.0358 -0.7530 -2.2132
  611SOL    HW2 1653   1.377   1.412   4.616 -1.3572  0.5464  0.3818
  612SOL     OW 1654   0.207   0.990   3.876  0.3353 -0.0940 -0.2882
  612SOL    HW1 1655   0.283   0.927   3.892  1.1573  0.8969 -0.2576
  612SOL    HW2 1656   0.231   1.082   3.906 -0.8936  0.2387 -0.2327
  613SOL     OW 1657   0.384   0.510   4.741 -0.1235 -0.2590  0.4490
  613SOL    HW1 1658   0.405   0.552   4.829 -1.5831 -0.8936  1.1351
  613SOL    HW2 1659   0.312   0.441   4.753  1.2498 -2.0132 -0.8646
  614SOL     OW 1660   0.970   3.667   3.760 -0.1275 -0.4978 -0.3021
  614SOL    HW1 1661   0.973   3.573   3.794  1.4915 -0.2708  0.2844
  614SOL    HW2 1662   0.907   3.721   3.816 -2.0323 -1.4702 -1.4077
  615SOL     OW 1663   1.103   4.466   4.354 -0.1795 -0.7040 -0.1051
  615SOL    HW1 1664   1.148   4.507   4.433  2.0325 -1.6071 -0.8198
  615SOL    HW2 1665   1.088   4.537   4.284 -1.2534 -0.1113  0.6829
  616SOL     OW 1666   0.500   4.422   4.661 -0.2340 -0.0505 -0.0580
  616SOL    HW1 1667   0.530   4.376   4.745  2.2173  2.0653  0.3625
  616SOL    HW2 1668   0.539   4.376   4.582  1.6093  0.7548  0.3182
  617SOL     OW 1669   2.185   0.548   0.514 -0.2257 -0.3941 -0.1389
  617SOL    HW1 1670   2.101   0.502   0.544  0.1046 -0.6947  0.3478
  617SOL    HW2 1671   2.235   0.488   0.452 -0.2617 -0.3068 -0.2516
  618SOL     OW 1672   1.376   1.120   3.070 -0.1219 -0.0741  0.0768
  618SOL    HW1 1673   1.411   1.074   3.152 -0.2857 -2.1085 -0.9385
  618SOL    HW2 1674   1.291   1.167   3.093  0.7561  0.9296  1.4638
  619SOL     OW 1675   1.430   1.077   3.332 -0.0758 -0.6656  0.0147
  619SOL    HW1 1676   1.403   1.083   3.428 -0.9121  0.4341 -0.2598
  619SOL    HW2 1677   1.510   1.018   3.323 -1.1577 -2.3994  1.1296
  620SOL     OW 1678   2.632   0.982   2.120 -0.2174 -0.5619  0.4672
  620SOL    HW1 1679   2.627   1.064   2.064  1.0389  1.3204  2.9029
  620SOL    HW2 1680   2.556   0.982   2.185 -0.4967 -1.6298  0.1572
  621SOL     OW 1681   0.731   0.952   3.178  0.0914 -0.2183 -0.0851
  621SOL    HW1 1682   0.744   0.919   3.272  4.4543  0.6012 -0.1923
  621SOL    HW2 1683   0.657   1.020   3.176  2.0077  2.3111  3.5888
  622SOL     OW 1684   4.993   0.529   3.526  0.0001  0.2180  0.3804
  622SOL    HW1 1685   4.912   0.493   3.572  0.1913  0.5952  1.0208
  622SOL    HW2 1686   5.049   0.580   3.591 -0.4612  2.0251 -0.5738
  623SOL     OW 1687   0.462   4.570   2.638 -0.0597  0.2097  0.2089
  623SOL    HW1 1688   0.416   4.608   2.719 -0.8392  0.3100 -0.2630
  623SOL    HW2 1689   0.395   4.560   2.564  0.7387  0.6090 -0.5905
  624SOL     OW 1690   0.746   0.063   4.856 -0.0782 -0.3142  0.5828
  624SOL    HW1 1691   0.664   0.028   4.902 -0.0716 -0.9116  0.1368
  624SOL    HW2 1692   0.761   0.013   4.772 -2.3319  3.2260 -2.2478
  625SOL     OW 1693   2.348   1.142   3.735  0.2647  0.5740 -0.4752
  625SOL    HW1 1694   2.434   1.187   3.762 -1.3267  3.1909  0.6349
  625SOL    HW2 1695   2.293   1.125   3.817 -1.0819  0.7298 -1.3272
  626SOL     OW 1696   0.362   0.800   3.247 -0.1732  0.4331 -0.5070
  626SOL    HW1 1697   0.443   0.858   3.247  0.7537 -0.8237 -0.3908
  626SOL    HW2 1698   0.280   0.857   3.258  0.7630  1.6165  0.6446
  627SOL     OW 1699   4.016   4.136   3.684  0.5494  0.5398  0.2800
  627SOL    HW1 1700   3.972   4.204   3.625 -1.0034 -1.1959 -0.6461
  627SOL    HW2 1701   4.026   4.050   3.635 -1.7574 -1.3051  2.7675
  628SOL     OW 1702   2.439   3.452   0.875  0.4350 -0.0315 -0.1353
  628SOL    HW1 1703   2.380   3.373   0.857  0.9028 -0.6776  1.0621
  628SOL    HW2 1704   2.507   3.459   0.803  0.6253 -0.9628 -0.0659
  629SOL     OW 1705   1.051   0.359   2.575 -0.0675  0.5925 -0.0204
  629SOL    HW1 1706   1.048   0.403   2.665 -2.0608 -0.7462  0.6507
  629SOL    HW2 1707   1.009   0.419   2.507 -0.0765  0.9382  0.2911
  630SOL     OW 1708   1.507   0.120   3.368 -0.1132 -0.6848  0.5775
  630SOL    HW1 1709   1.590   0.065   3.375  0.4232  0.1542  1.0261
  630SOL    HW2 1710   1.495   0.172   3.452 -1.0233 -0.6870  0.4555
  631SOL     OW 1711   0.097   2.900   4.667 -0.0543  0.1530  0.4327
  631SOL    HW1 1712   0.071   2.996   4.661 -1.0031 -0.0572  0.8686
  631SOL    HW2 1713   0.018   2.846   4.697  1.0480 -0.4458  2.5256
  632SOL     OW 1714   4.068   1.026   2.727  0.3081 -0.3773 -0.2687
  632SOL    HW1 1715   4.132   0.966   2.679 -0.2501 -0.0141 -1.5167
  632SOL    HW2 1716   3.979   0.982   2.732 -0.1719  0.4086 -1.4172
  633SOL     OW 1717   1.878   1.460   4.788  0.0708  0.3556 -0.4950
  633SOL    HW1 1718   1.949   1.390   4.779  0.0965  0.0951  1.3864
  633SOL    HW2 1719   1.788   1.417   4.772  0.0059 -0.3922  1.5598
  634SOL     OW 1720   0.271   0.021   0.275 -0.0107 -0.4146 -0.1071
  634SOL    HW1 1721   0.324   0.051   0.355  2.5339 -1.5284 -1.2731
  634SOL    HW2 1722   0.188  -0.026   0.305 -1.1553  2.5545  1.7905
  635SOL     OW 1723   0.597   1.360   4.485 -0.0673  0.1562  0.6685
  635SOL    HW1 1724   0.600   1.459   4.469 -1.0153 -0.2039 -2.3154
  635SOL    HW2 1725   0.679   1.318   4.447 -0.2277 -0.3335  0.8608
  636SOL     OW 1726   1.047   4.757   0.716  0.1800  0.6605  0.1286
  636SOL    HW1 1727   1.031   4.662   0.742  0.4404  0.7499  0.6192
  636SOL    HW2 1728   1.113   4.760   0.641 -0.2272  0.4278 -0.2431
  637SOL     OW 1729   2.070   0.507   3.367  0.4326 -0.2040 -0.6886
  637SOL    HW1 1730   1.997   0.576   3.373  0.8124  0.2860 -1.6463
  637SOL    HW2 1731   2.029   0.416   3.358 -0.0642  0.0195 -0.7205
  638SOL     OW 1732   3.377   0.082   3.669 -0.1643  0.6351 -0.3993
  638SOL    HW1 1733   3.386   0.148   3.743 -0.4919 -0.1399  0.3534
  638SOL    HW2 1734   3.403  -0.009   3.702  0.9077  0.4833 -1.5895
  639SOL     OW 1735   0.625   2.836   4.181 -0.0711  0.5116 -0.3008
  639SOL    HW1 1736   0.535   2.840   4.224  0.1537 -0.3616  0.2647
  639SOL    HW2 1737   0.696   2.840   4.251  0.2998 -0.6969 -0.5794
  640SOL     OW 1738   4.802   4.860   4.372  0.2673 -0.2868 -0.2451
  640SOL    HW1 1739   4.824   4.886   4.278  0.9376 -1.5226 -0.4491
  640SOL    HW2 1740   4.802   4.760   4.380  1.3028 -0.2052  1.3044
  641SOL     OW 1741   0.558   1.444   4.937 -0.0075  0.0192 -0.6677
  641SOL    HW1 1742   0.538   1.540   4.917  0.2954 -0.0760 -1.4764
  641SOL    HW2 1743   0.483   1.404   4.989 -0.8776  0.2719 -1.6960
  642SOL     OW 1744   1.384   2.682   0.069 -0.0841  0.1068 -0.4030
  642SOL    HW1 1745   1.471   2.710   0.029  0.8708 -0.0339  1.4846
  642SOL    HW2 1746   1.400   2.608   0.135 -1.7379 -0.4045 -0.5271
  643SOL     OW 1747   1.119   0.831   5.031  0.2652 -0.4326  0.0230
  643SOL    HW1 1748   1.092   0.818   5.127 -0.5194 -2.0000 -0.3780
  643SOL    HW2 1749   1.160   0.747   4.996 -1.6930 -0.7491 -1.7073
  644SOL     OW 1750   2.096   0.429   2.644  0.2809  0.3951  0.4672
  644SOL    HW1 1751   2.014   0.406   2.592  0.6303 -0.0541  0.1037
  644SOL    HW2 1752   2.099   0.373   2.727  1.1345 -0.9372 -0.4225
  645SOL     OW 1753   1.441   1.745   3.489 -0.4029  0.5990 -0.0535
  645SOL    HW1 1754   1.346   1.732   3.518 -0.9728 -0.0756 -2.0391
  645SOL    HW2 1755   1.446   1.742   3.389  1.4549  2.5759 -0.0788
  646SOL     OW 1756   0.100   0.369   4.130  0.2835  0.4199  0.0841
  646SOL    HW1 1757   0.137   0.312   4.203  1.5938 -0.5338 -1.2707
  646SOL    HW2 1758   0.026   0.426   4.167 -0.0451 -1.0230  1.8194
  647SOL     OW 1759   4.302   4.847   3.704  0.0927 -0.4147  0.1213
  647SOL    HW1 1760   4.381   4.877   3.651  1.5692 -1.7008  1.4983
  647SOL    HW2 1761   4.270   4.759   3.670 -0.7775  0.0987 -0.4278
  648SOL     OW 1762   0.250   0.402   4.451 -0.3158 -0.0866  0.2196
  648SOL    HW1 1763   0.221   0.391   4.546 -2.1754 -1.0443 -0.4031
  648SOL    HW2 1764   0.222   0.492   4.417 -0.2028  0.0156  0.3979
  649SOL     OW 1765   0.716   4.299   1.143  0.2003 -0.4831 -0.2631
  649SOL    HW1 1766   0.742   4.396   1.145 -1.0826 -0.1130 -0.1796
  649SOL    HW2 1767   0.798   4.242   1.147  1.0381  0.5986 -1.1113
  650SOL     OW 1768   0.132   4.318   3.781 -0.3371  0.0617 -0.2715
  650SOL    HW1 1769   0.092   4.401   3.742 -0.6526  0.6502  1.2163
  650SOL    HW2 1770   0.076   4.239   3.757  1.7047 -0.3454 -4.5022
  651SOL     OW 1771   0.840   3.081   3.318  0.1622  0.4851  0.0544
  651SOL    HW1 1772   0.778   3.037   3.384 -0.0408  0.1290 -0.3685
  651SOL    HW2 1773   0.798   3.165   3.285 -0.2776  0.0537 -0.5136
  652SOL     OW 1774   4.301   2.424   3.203  0.8820  0.6182  0.2423
  652SOL    HW1 1775   4.346   2.335   3.209  0.8069  0.5125 -0.5778
  652SOL    HW2 1776   4.225   2.428   3.267 -0.7212 -0.8898 -1.4721
  653SOL     OW 1777   0.876   1.976   2.690  0.3783 -0.2628 -0.2048
  653SOL    HW1 1778   0.838   2.006   2.603 -1.9715 -0.5698  0.6524
  653SOL    HW2 1779   0.870   1.876   2.697  1.1944 -0.3083  0.0600
  654SOL     OW 1780   0.503   0.293   4.413  0.0995 -0.6038 -0.1531
  654SOL    HW1 1781   0.529   0.309   4.318  1.5451 -0.1918  0.2754
  654SOL    HW2 1782   0.414   0.333   4.432  0.4760  0.6504 -0.9475
  655SOL     OW 1783   0.971   0.261   4.403 -0.0490  0.3276  0.0461
  655SOL    HW1 1784   1.045   0.223   4.348  1.4012  1.6138  1.0211
  655SOL    HW2 1785   0.940   0.347   4.362 -0.6935  0.0388 -0.0933
  656SOL     OW 1786   0.423   0.055   3.885  0.2592  0.6868 -0.4849
  656SOL    HW1 1787   0.496  -0.013   3.887 -0.7744 -0.4493 -0.0629
  656SOL    HW2 1788   0.340   0.016   3.925  0.2820  3.0092  2.0746
  657SOL     OW 1789   4.390   4.671   2.846 -0.3636  0.1004  0.0827
  657SOL    HW1 1790   4.456   4.730   2.894 -1.6746  0.4227  1.5853
  657SOL    HW2 1791   4.303   4.672   2.895 -1.0675 -1.4503 -1.0470
  658SOL     OW 1792   0.371   1.338   0.081  0.1415 -0.0701 -0.3517
  658SOL    HW1 1793   0.353   1.250   0.036  0.3629 -0.0289 -0.5195
  658SOL    HW2 1794   0.426   1.322   0.163 -1.2048 -0.2810  0.5565
  659SOL     OW 1795   0.783   0.190   3.915  1.0072  0.1637  0.5168
  659SOL    HW1 1796   0.726   0.184   3.834 -0.3246 -0.6058  1.4679
  659SOL    HW2 1797   0.796   0.099   3.954  1.0466  0.5909  1.5517
  660SOL     OW 1798   1.507   1.192   4.937  0.3186  0.4826  0.4021
  660SOL    HW1 1799   1.544   1.246   4.862 -0.2816  0.8905  0.3967
  660SOL    HW2 1800   1.429   1.240   4.978 -2.0367 -1.5252 -1.3577
  661SOL     OW 1801   1.485   2.154   3.817  0.2852  0.2280 -0.1716
  661SOL    HW1 1802   1.429   2.235   3.835 -0.6707 -0.4423 -0.0530
  661SOL    HW2 1803   1.582   2.178   3.825  0.0456  1.5301 -0.8993
  662SOL     OW 1804   2.199   3.880   3.606 -0.6849 -0.0615 -0.1551
  662SOL    HW1 1805   2.107   3.859   3.576 -0.4160 -1.4322 -0.0830
  662SOL    HW2 1806   2.243   3.941   3.540 -1.0952 -0.6944 -1.0376
  663SOL     OW 1807   1.060   2.087   1.378 -0.2528  0.3410 -0.1797
  663SOL    HW1 1808   1.038   1.994   1.349  1.5538 -0.0140 -0.5303
  663SOL    HW2 1809   0.993   2.151   1.338 -1.0794 -0.7122 -0.5370
  664SOL     OW 1810   0.201   1.031   0.132  0.6291  0.1413 -0.3043
  664SOL    HW1 1811   0.180   1.029   0.229 -0.0938  2.6690 -0.3406
  664SOL    HW2 1812   0.116   1.024   0.079  0.9654 -0.6034 -0.7754
  665SOL     OW 1813   3.201   4.698   2.687 -0.2220  0.4500 -0.0382
  665SOL    HW1 1814   3.192   4.654   2.776  0.3827  1.9417  0.7816
  665SOL    HW2 1815   3.268   4.772   2.692 -1.3298  1.5905 -1.3315
  666SOL     OW 1816   1.510   2.259   3.061  0.0152 -0.1096  0.0172
  666SOL    HW1 1817   1.506   2.217   2.971 -0.9314  0.7549 -0.3490
  666SOL    HW2 1818   1.463   2.201   3.127 -0.1889 -0.2385 -0.2420
  667SOL     OW 1819   1.662   4.593   1.407  0.5461  0.3132 -0.1253
  667SOL    HW1 1820   1.652   4.552   1.498  1.5851  1.3544  0.4931
  667SOL    HW2 1821   1.759   4.614   1.391  0.2570  0.9322 -1.1188
  668SOL     OW 1822   2.331   1.902   3.477 -0.0028 -0.0658 -0.0856
  668SOL    HW1 1823   2.284   1.922   3.563  0.1315 -0.5118  0.0928
  668SOL    HW2 1824   2.421   1.948   3.477 -0.1190  0.1638 -0.1083
  669SOL     OW 1825   1.068   2.359   4.318  0.2196 -0.0002 -0.2685
  669SOL    HW1 1826   1.138   2.419   4.357 -1.9467  1.1346  2.2510
  669SOL    HW2 1827   1.001   2.337   4.389 -1.5576 -1.6883 -2.3360
  670SOL     OW 1828   1.885   4.581   0.424 -0.6987 -0.0578  0.6215
  670SOL    HW1 1829   1.828   4.642   0.369  1.0213  0.1388 -1.0801
  670SOL    HW2 1830   1.948   4.636   0.479 -0.0500 -0.2591  0.0966
  671SOL     OW 1831   0.073   4.547   3.588 -0.3947  0.0158 -0.1039
  671SOL    HW1 1832   0.136   4.624   3.586 -0.3687  0.0248  0.6338
  671SOL    HW2 1833  -0.019   4.579   3.567 -0.2616  0.1176 -0.5349
  672SOL     OW 1834   0.943   1.896   4.174 -0.2173 -0.2961  0.0560
  672SOL    HW1 1835   0.911   1.935   4.260  1.1180 -1.0140  0.9041
  672SOL    HW2 1836   0.999   1.815   4.192 -1.2353 -1.4198 -1.5670
  673SOL     OW 1837   4.993   0.970   0.016  0.4655 -0.7088  0.6194
  673SOL    HW1 1838   4.927   1.040  -0.009 -1.2543 -2.2348  0.6259
  673SOL    HW2 1839   4.960   0.881  -0.016  1.3771 -1.8359  2.6229
  674SOL     OW 1840   4.729   2.237   4.414 -0.3241  0.1850 -0.7612
  674SOL    HW1 1841   4.678   2.155   4.440  0.9573 -1.2684 -2.5551
  674SOL    HW2 1842   4.801   2.254   4.481 -1.0037  0.2632 -0.0295
  675SOL     OW 1843   1.794   1.169   3.614  0.1719 -0.2154  0.0881
  675SOL    HW1 1844   1.708   1.141   3.658  1.1098 -1.1436  1.3810
  675SOL    HW2 1845   1.858   1.093   3.614  1.5981  0.9333  0.6261
  676SOL     OW 1846   2.815   1.509   3.700 -0.0284 -0.0214  0.5288
  676SOL    HW1 1847   2.741   1.536   3.639 -0.5902 -2.6055 -0.0470
  676SOL    HW2 1848   2.807   1.559   3.786 -0.3016  2.3364 -0.7752
  677SOL     OW 1849   2.409   1.088   3.448  0.0170 -0.3112  0.5048
  677SOL    HW1 1850   2.406   1.117   3.544  0.9605 -0.3396  0.5577
  677SOL    HW2 1851   2.428   1.167   3.390  0.7009 -0.4886  0.4726
  678SOL     OW 1852   1.024   2.593   0.850  0.0567  0.2336  0.2209
  678SOL    HW1 1853   0.971   2.660   0.903 -0.4885  0.7091 -0.8772
  678SOL    HW2 1854   1.117   2.588   0.885 -0.5069 -0.0677  1.7298
  679SOL     OW 1855   2.800   3.294   1.480  0.4548 -0.6925  0.1417
  679SOL    HW1 1856   2.727   3.340   1.531  2.0437  2.1861  0.0219
  679SOL    HW2 1857   2.793   3.318   1.383  2.4444  1.0503  0.3584
  680SOL     OW 1858   4.607   2.207   4.689 -0.0398  0.4936  0.1789
  680SOL    HW1 1859   4.671   2.129   4.693  0.0073  0.4080 -1.5180
  680SOL    HW2 1860   4.566   2.220   4.779 -0.2215 -1.6496  0.4792
  681SOL     OW 1861   5.003   0.332   3.866 -0.3849  0.7048 -0.2130
  681SOL    HW1 1862   5.040   0.368   3.952  0.4336  0.6444 -0.5282
  681SOL    HW2 1863   5.072   0.274   3.822 -1.1623 -0.0701 -0.4266
  682SOL     OW 1864   2.745   3.413   3.061 -0.4076 -0.2140 -0.4545
  682SOL    HW1 1865   2.645   3.408   3.068 -0.4464 -0.0404 -0.8464
  682SOL    HW2 1866   2.774   3.509   3.064 -0.2103 -0.2948  0.2027
  683SOL     OW 1867   0.941   2.626   4.520  0.1020 -0.2374  0.4158
  683SOL    HW1 1868   1.019   2.677   4.486 -0.8692  0.7359 -0.4324
  683SOL    HW2 1869   0.959   2.593   4.613  0.6771  1.8322  1.0784
  684SOL     OW 1870   1.825   1.427   3.545 -0.6905 -0.4570  0.1830
  684SOL    HW1 1871   1.912   1.471   3.522 -0.9189 -0.4343 -0.6963
  684SOL    HW2 1872   1.838   1.328   3.551 -0.5927 -0.4513  0.0727
  685SOL     OW 1873   4.941   0.052   0.079  0.2141  0.1081 -0.0254
  685SOL    HW1 1874   4.894   0.077   0.164 -0.3637  1.1817 -0.6375
  685SOL    HW2 1875   5.036   0.083   0.083  0.8263 -1.7592  1.0759
  686SOL     OW 1876   2.297   2.095   3.200 -0.5971 -0.1852  0.1421
  686SOL    HW1 1877   2.240   2.177   3.206  0.3863  0.5260 -0.0777
  686SOL    HW2 1878   2.252   2.020   3.248 -1.7072  0.3625 -0.0147
  687SOL     OW 1879   1.233   4.448   0.052 -0.2061 -0.1490  0.3711
  687SOL    HW1 1880   1.264   4.454  -0.043 -1.1542 -0.2168  0.0498
  687SOL    HW2 1881   1.256   4.532   0.100 -0.3281  0.1540 -0.0997
  688SOL     OW 1882   0.373   1.484   3.656 -0.2980 -0.1635  0.5258
  688SOL    HW1 1883   0.410   1.391   3.653  0.4539  0.1556 -0.6420
  688SOL    HW2 1884   0.280   1.484   3.620 -0.8290 -0.6788  1.8375
  689SOL     OW 1885   1.511   4.579   0.336  0.4536  0.0558 -0.5336
  689SOL    HW1 1886   1.568   4.644   0.387  1.7069 -1.5508  0.2251
  689SOL    HW2 1887   1.570   4.514   0.289 -0.7191  0.8105 -3.1965
  690SOL     OW 1888   1.141   1.518   3.959 -0.2039 -0.9762 -0.0785
  690SOL    HW1 1889   1.233   1.518   3.999 -0.5305  0.4930  0.7433
  690SOL    HW2 1890   1.076   1.559   4.024 -1.5848 -2.5916 -0.3686
  691SOL     OW 1891   4.672   2.614   3.747 -0.6479  0.1209  0.3688
  691SOL    HW1 1892   4.590   2.590   3.799  0.6355  0.5618  2.7548
  691SOL    HW2 1893   4.673   2.712   3.730  0.5311  0.6022  2.7016
  692SOL     OW 1894   0.917   4.102   1.192  0.2566  0.1172  0.3247
  692SOL    HW1 1895   1.015   4.084   1.201 -0.0590 -1.7975  0.4277
  692SOL    HW2 1896   0.873   4.089   1.281 -0.3652 -1.2243 -0.1456
  693SOL     OW 1897   1.278   1.066   3.600 -0.4587 -0.2982  1.0593
  693SOL    HW1 1898   1.199   1.105   3.552 -0.8152 -3.2232 -1.0030
  693SOL    HW2 1899   1.249   0.985   3.652  0.9571 -0.5772  1.4708
  694SOL     OW 1900   0.355   0.891   5.002  0.0785 -0.1315 -0.1546
  694SOL    HW1 1901   0.304   0.947   5.068  0.5980 -1.2697  1.2674
  694SOL    HW2 1902   0.328   0.796   5.012 -0.4850 -0.2294 -2.2539
  695SOL     OW 1903   0.898   1.581   1.739  0.1688  0.0279 -0.2910
  695SOL    HW1 1904   0.948   1.667   1.748  2.1436 -0.9475 -1.3381
  695SOL    HW2 1905   0.803   1.595   1.767  1.3136  1.5920  3.3446
  696SOL     OW 1906   1.294   4.057   3.602  0.0832 -0.1767 -0.0770
  696SOL    HW1 1907   1.244   3.996   3.665  2.1456 -0.0942  1.7767
  696SOL    HW2 1908   1.335   4.003   3.529 -2.3378 -0.2797 -1.4774
  697SOL     OW 1909   4.064   1.167   3.635 -0.0908  0.2138 -0.1638
  697SOL    HW1 1910   4.119   1.187   3.554  1.1659 -0.5479  0.4700
  697SOL    HW2 1911   3.986   1.230   3.639 -0.3748  0.0559 -2.1257
  698SOL     OW 1912   2.591   1.613   3.558  0.1308 -0.6769 -0.7054
  698SOL    HW1 1913   2.556   1.672   3.631  0.7674 -1.5047  0.2977
  698SOL    HW2 1914   2.514   1.573   3.508 -0.3351 -0.6407 -0.0321
  699SOL     OW 1915   0.734   1.006   4.792 -0.7815  0.1842 -0.1768
  699SOL    HW1 1916   0.741   1.106   4.796  2.1418  0.0092  1.5974
  699SOL    HW2 1917   0.638   0.980   4.778 -1.6047  3.1998 -0.8055
  700SOL     OW 1918   2.644   4.908   0.995 -0.1266 -0.2229  0.1049
  700SOL    HW1 1919   2.703   4.958   1.059  0.7376 -3.0955  1.7580
  700SOL    HW2 1920   2.562   4.963   0.975  1.5829  2.5816  0.1957
  701SOL     OW 1921   1.674   0.221   0.830 -0.1716 -0.2200 -0.5129
  701SOL    HW1 1922   1.769   0.191   0.844 -0.8739 -2.3269  0.1543
  701SOL    HW2 1923   1.627   0.224   0.918 -0.7090  0.9901 -0.8169
  702SOL     OW 1924   1.508   1.331   2.950  0.4782 -0.1429  0.2034
  702SOL    HW1 1925   1.486   1.234   2.962 -1.9230  0.4297  0.8653
  702SOL    HW2 1926   1.607   1.343   2.956  0.7990 -2.4662  0.6444
  703SOL     OW 1927   1.345   0.632   3.133 -0.5285 -0.5890 -0.1808
  703SOL    HW1 1928   1.394   0.638   3.220 -1.2948  0.7847  0.1902
  703SOL    HW2 1929   1.256   0.678   3.142 -2.4675 -3.9786 -0.4663
  704SOL     OW 1930   1.927   4.632   0.718  0.2039 -0.2074  0.1083
  704SOL    HW1 1931   1.828   4.626   0.706 -0.0217  0.4121  1.4884
  704SOL    HW2 1932   1.952   4.728   0.732  1.4501  0.1586 -3.6069
  705SOL     OW 1933   2.207   2.494   4.972 -0.0842 -0.1915 -0.6944
  705SOL    HW1 1934   2.163   2.417   4.926 -1.4566 -0.0735  0.3898
  705SOL    HW2 1935   2.158   2.516   5.056  2.8572 -0.9830  1.4096
  706SOL     OW 1936   4.777   0.823   3.772 -0.1867  0.2055  0.4916
  706SOL    HW1 1937   4.815   0.754   3.834 -0.3735 -1.1441 -0.8430
  706SOL    HW2 1938   4.688   0.792   3.739  0.4224  0.3240 -1.3578
  707SOL     OW 1939   0.847   2.108   4.351 -0.2157  0.2265 -0.4954
  707SOL    HW1 1940   0.788   2.157   4.286 -1.7790 -0.6607  0.1971
  707SOL    HW2 1941   0.861   2.164   4.432  0.5357  0.7444 -0.9725
  708SOL     OW 1942   1.253   4.592   0.612 -0.0446 -0.3304 -0.1148
  708SOL    HW1 1943   1.350   4.581   0.594  0.4128  0.5824  1.5486
  708SOL    HW2 1944   1.229   4.545   0.697 -0.4366  1.7420  0.9792
  709SOL     OW 1945   0.045   3.718   0.978 -0.1014  0.1533 -0.9019
  709SOL    HW1 1946   0.139   3.740   0.950  0.1389 -1.2768 -1.3370
  709SOL    HW2 1947  -0.007   3.689   0.898 -0.4797 -0.4690 -0.4429
  710SOL     OW 1948   0.737   3.248   0.990 -0.2141 -0.4436 -1.0348
  710SOL    HW1 1949   0.642   3.268   1.012 -0.2880  0.6657 -2.2479
  710SOL    HW2 1950   0.767   3.306   0.914  2.2160  1.0954  0.9375
  711SOL     OW 1951   1.178   2.097   1.834 -0.0767  0.3991 -0.2557
  711SOL    HW1 1952   1.179   2.166   1.761 -0.5948 -1.2931 -1.9169
  711SOL    HW2 1953   1.225   2.134   1.915 -2.8377  3.8052  0.0248
  712SOL     OW 1954   1.332   3.537   0.765 -0.1255  0.0142 -0.0494
  712SOL    HW1 1955   1.323   3.631   0.731 -1.6734 -0.7461 -1.9252
  712SOL    HW2 1956   1.414   3.496   0.726  0.3290  0.4377  0.4434
  713SOL     OW 1957   1.618   0.466   1.379 -0.7764 -0.9918  0.4767
  713SOL    HW1 1958   1.532   0.477   1.428 -1.1573  1.4966 -0.5927
  713SOL    HW2 1959   1.685   0.531   1.415  0.1757 -1.8370  0.2673
  714SOL     OW 1960   0.590   2.404   3.652 -0.4367 -0.4061  0.0715
  714SOL    HW1 1961   0.680   2.359   3.650 -0.5504 -0.6332  0.0984
  714SOL    HW2 1962   0.540   2.382   3.569 -0.1512  0.3719 -0.3219
  715SOL     OW 1963   1.829   1.872   1.781 -0.6030 -0.2387 -0.4031
  715SOL    HW1 1964   1.738   1.842   1.810 -0.0800 -0.0103  1.6124
  715SOL    HW2 1965   1.871   1.802   1.723 -1.2061 -1.3344  0.4511
  716SOL     OW 1966   0.545   2.507   1.119 -0.1911 -0.4390  1.1693
  716SOL    HW1 1967   0.597   2.493   1.204 -1.3263 -1.3418  1.7398
  716SOL    HW2 1968   0.471   2.571   1.136 -0.1143 -0.2294  0.7204
  717SOL     OW 1969   4.703   1.853   0.542  0.0042 -0.2278 -0.0741
  717SOL    HW1 1970   4.717   1.756   0.523 -0.1184 -0.3184  0.2829
  717SOL    HW2 1971   4.698   1.867   0.641 -2.1518 -0.1729 -0.1483
  718SOL     OW 1972   0.978   2.669   2.756 -0.0154  0.6679  0.4071
  718SOL    HW1 1973   0.887   2.694   2.786  0.0283 -0.0365  1.1566
  718SOL    HW2 1974   0.972   2.607   2.678 -0.1851  0.4645  0.5816
  719SOL     OW 1975   1.084   4.530   0.406  0.7202  0.2032  0.0162
  719SOL    HW1 1976   1.128   4.531   0.495 -0.9355 -3.1502  1.0294
  719SOL    HW2 1977   1.121   4.456   0.351  0.3693  1.0101 -1.3706
  720SOL     OW 1978   0.860   3.113   0.788 -0.1263  0.0450 -0.2087
  720SOL    HW1 1979   0.892   3.205   0.806  1.3862 -0.1434 -1.6762
  720SOL    HW2 1980   0.760   3.114   0.778 -0.2494  1.2960  0.9117
  721SOL     OW 1981   3.956   1.511   1.644 -0.2559 -0.2216 -0.2424
  721SOL    HW1 1982   4.049   1.538   1.666 -0.6770  1.4124 -0.3162
  721SOL    HW2 1983   3.951   1.412   1.634  0.6815 -0.8062  3.5565
  722SOL     OW 1984   0.087   3.025   0.949 -0.2519  0.0583  0.2115
  722SOL    HW1 1985  -0.008   3.027   0.917 -0.2767  0.8674  0.3157
  722SOL    HW2 1986   0.122   3.118   0.954  0.0110 -0.1060  1.7730
  723SOL     OW 1987   0.646   3.700   1.219 -0.4091  0.0708 -0.2775
  723SOL    HW1 1988   0.702   3.767   1.169 -0.0990  0.9062  1.1378
  723SOL    HW2 1989   0.692   3.611   1.217  0.8580  0.6771  0.6234
  724SOL     OW 1990   0.480   2.771   1.308 -0.0607  0.3199 -0.2592
  724SOL    HW1 1991   0.430   2.845   1.353 -2.0945 -0.3738 -1.2565
  724SOL    HW2 1992   0.537   2.724   1.375 -0.0191  1.7351  0.7343
  725SOL     OW 1993   4.635   4.484   3.184  0.1445  0.1579 -0.5062
  725SOL    HW1 1994   4.684   4.488   3.097  1.4197  0.4474  0.1981
  725SOL    HW2 1995   4.684   4.423   3.247 -1.9071 -1.7817 -0.6546
  726SOL     OW 1996   4.958   4.024   0.225  0.0910  0.1456  0.0540
  726SOL    HW1 1997   5.019   3.945   0.223  1.2079  0.9963 -0.5236
  726SOL    HW2 1998   4.890   4.015   0.152 -1.4822 -1.5371  1.6274
  727SOL     OW 1999   2.177   3.598   2.444  0.3272  0.1378  0.0304
  727SOL    HW1 2000   2.274   3.614   2.463  0.0933 -0.0777  1.5444
  727SOL    HW2 2001   2.167   3.550   2.358  1.4264  2.2821 -1.3915
  728SOL     OW 2002   4.154   4.083   4.748  0.0277  0.0849 -0.1060
  728SOL    HW1 2003   4.198   4.115   4.833  2.1217  0.0873 -1.1136
  728SOL    HW2 2004   4.101   4.157   4.708  0.3254  0.5829  0.4050
  729SOL     OW 2005   0.330   2.898   0.577  0.2376  0.1837  0.4414
  729SOL    HW1 2006   0.385   2.891   0.660  1.1547 -0.5082 -0.1992
  729SOL    HW2 2007   0.390   2.900   0.497 -0.6582 -1.0634 -0.3089
  730SOL     OW 2008   1.279   4.347   2.041 -0.0325  0.0737  0.1831
  730SOL    HW1 2009   1.245   4.441   2.035 -1.7416 -0.5153  0.0460
  730SOL    HW2 2010   1.371   4.342   2.002 -0.7164  1.3115 -1.7572
  731SOL     OW 2011   0.703   3.903   4.698  0.5767 -0.0497  0.4800
  731SOL    HW1 2012   0.688   4.002   4.703 -2.2127 -0.4184  0.6096
  731SOL    HW2 2013   0.755   3.882   4.615 -0.1486  1.4041 -0.3826
  732SOL     OW 2014   0.093   3.906   2.487 -0.2992 -0.2495 -0.2304
  732SOL    HW1 2015   0.121   3.884   2.580  0.4241  1.3451 -0.0304
  732SOL    HW2 2016   0.006   3.861   2.467 -0.1746 -1.0868  0.9944
  733SOL     OW 2017   1.183   1.653   3.528  0.2419  0.2737 -0.4599
  733SOL    HW1 2018   1.142   1.684   3.614  0.1378  2.4689 -1.2509
  733SOL    HW2 2019   1.115   1.602   3.476 -0.4068  0.8891 -0.2298
  734SOL     OW 2020   2.380   2.095   1.184 -0.1103  0.1362 -0.0910
  734SOL    HW1 2021   2.338   2.186   1.186  0.1589  0.2464  1.0862
  734SOL    HW2 2022   2.311   2.027   1.159 -0.5973  0.5222  0.1847
  735SOL     OW 2023   0.596   2.317   0.739 -0.6284 -0.2098  0.5156
  735SOL    HW1 2024   0.677   2.259   0.731 -2.7806 -3.4530  0.3839
  735SOL    HW2 2025   0.566   2.346   0.648  1.1399  2.3180  0.6499
  736SOL     OW 2026   4.453   3.147   0.130  0.0241  0.0895  0.1368
  736SOL    HW1 2027   4.449   3.061   0.079  0.1974 -0.5659  1.1965
  736SOL    HW2 2028   4.366   3.195   0.122 -0.0678 -0.1751 -0.4780
  737SOL     OW 2029   1.426   1.542   1.338  0.5181  0.4812 -0.2480
  737SOL    HW1 2030   1.411   1.617   1.274  1.3554  0.6608 -0.2470
  737SOL    HW2 2031   1.339   1.497   1.357  0.4349 -0.4612 -2.5603
  738SOL     OW 2032   1.388   2.556   0.551 -0.3900  0.0103  0.2883
  738SOL    HW1 2033   1.301   2.587   0.513 -0.2660  0.0576  0.0415
  738SOL    HW2 2034   1.373   2.474   0.607 -0.4447 -0.6029 -0.6031
  739SOL     OW 2035   4.902   2.775   4.701  0.3283  0.7601  0.8281
  739SOL    HW1 2036   4.850   2.736   4.625  2.6664  1.0351 -1.0122
  739SOL    HW2 2037   4.849   2.851   4.740 -0.6679  1.0914 -0.9959
  740SOL     OW 2038   4.941   1.351   0.693  0.1399 -0.6864 -0.1628
  740SOL    HW1 2039   5.002   1.283   0.734  0.0199 -0.1683  0.9224
  740SOL    HW2 2040   4.938   1.338   0.594  0.3092 -2.1019 -0.0142
  741SOL     OW 2041   3.052   4.998   1.653 -0.1735  0.2599  0.2841
  741SOL    HW1 2042   3.061   4.923   1.589  1.0239  0.4483  0.2081
  741SOL    HW2 2043   3.108   4.980   1.734  0.2561  1.1321  0.1951
  742SOL     OW 2044   0.738   3.012   1.147  0.5854  0.2218  0.7197
  742SOL    HW1 2045   0.737   3.078   1.071  1.1420  1.2577  1.5803
  742SOL    HW2 2046   0.830   3.007   1.185  0.5244 -1.0005  0.7389
  743SOL     OW 2047   2.059   2.417   0.184  0.1545 -0.2051  0.9587
  743SOL    HW1 2048   2.116   2.335   0.176  0.5385 -0.0054  1.5027
  743SOL    HW2 2049   1.981   2.397   0.243 -1.0999 -0.8612 -0.8580
  744SOL     OW 2050   2.268   4.748   4.610  0.6842  0.0996 -0.1248
  744SOL    HW1 2051   2.346   4.695   4.578  0.4985  0.1257 -0.6286
  744SOL    HW2 2052   2.183   4.705   4.579  0.4440 -0.5568  1.3515
  745SOL     OW 2053   1.012   3.116   0.038  0.4592  0.0100 -0.2407
  745SOL    HW1 2054   1.099   3.094  -0.005  0.9919  0.5502  0.5400
  745SOL    HW2 2055   0.976   3.035   0.085 -0.0396 -0.5339 -1.5137
  746SOL     OW 2056   0.358   5.013   2.512  0.2437 -0.3852 -0.1807
  746SOL    HW1 2057   0.305   5.098   2.507  1.2227  0.2846  0.4116
  746SOL    HW2 2058   0.351   4.975   2.604 -0.8753 -1.4247 -0.6704
  747SOL     OW 2059   2.000   0.664   4.272  0.3333  0.3416  0.1576
  747SOL    HW1 2060   2.022   0.574   4.308  0.1371 -0.0252 -0.6400
  747SOL    HW2 2061   1.965   0.722   4.346  1.8914  0.2574  0.9942
  748SOL     OW 2062   1.375   0.662   1.912 -0.0177  0.6149 -0.8040
  748SOL    HW1 2063   1.342   0.569   1.927  0.3900  0.4851 -0.6897
  748SOL    HW2 2064   1.473   0.666   1.934 -0.1117  1.1494 -0.4652
  749SOL     OW 2065   1.336   1.658   2.055 -0.3428  0.1282 -0.3239
  749SOL    HW1 2066   1.252   1.603   2.053  0.4788 -1.1535 -0.5016
  749SOL    HW2 2067   1.344   1.710   1.971 -0.1307 -1.0565 -1.0641
  750SOL     OW 2068   2.248   1.705   1.379 -0.3958 -0.5046 -0.0567
  750SOL    HW1 2069   2.295   1.619   1.400  0.1590 -0.1013  0.3901
  750SOL    HW2 2070   2.313   1.781   1.387 -1.6862  0.4219  3.3038
  751SOL     OW 2071   0.008   2.561   1.517  0.1278  0.0361 -0.7044
  751SOL    HW1 2072  -0.012   2.529   1.609 -2.0672  1.1067 -0.7361
  751SOL    HW2 2073  -0.067   2.534   1.456 -1.5101  4.3144 -0.8917
  752SOL     OW 2074   0.620   2.317   0.275 -0.2611 -0.5495  0.2992
  752SOL    HW1 2075   0.696   2.303   0.212  1.9554  3.0355  1.8908
  752SOL    HW2 2076   0.564   2.394   0.243 -2.2746 -2.0103  0.0946
  753SOL     OW 2077   4.353   3.775   4.314 -0.2365  0.1612  0.2569
  753SOL    HW1 2078   4.271   3.782   4.258  0.1995  0.4209 -0.3628
  753SOL    HW2 2079   4.373   3.864   4.355 -0.0115  0.2109  0.0411
  754SOL     OW 2080   1.844   3.883   1.574 -0.0110  0.2897 -0.4924
  754SOL    HW1 2081   1.874   3.963   1.523 -0.7043  1.0882  0.3231
  754SOL    HW2 2082   1.793   3.912   1.655 -1.6818 -0.9986 -1.0365
  755SOL     OW 2083   2.286   1.696   3.862  0.1444  0.5113 -0.2790
  755SOL    HW1 2084   2.281   1.746   3.948 -0.5430  0.9444 -0.5659
  755SOL    HW2 2085   2.211   1.724   3.803 -0.2883 -0.8975 -0.4276
  756SOL     OW 2086   2.244   2.336   1.186  0.5003 -0.2661  0.0623
  756SOL    HW1 2087   2.153   2.294   1.188  0.1575  0.4438 -0.4371
  756SOL    HW2 2088   2.275   2.352   1.280 -0.9964  1.8136  0.2857
  757SOL     OW 2089   0.252   3.834   1.250 -0.0128 -0.0589 -0.0505
  757SOL    HW1 2090   0.328   3.851   1.313  0.4247 -1.9885  0.0154
  757SOL    HW2 2091   0.289   3.800   1.163 -0.7395  0.1813 -0.4611
  758SOL     OW 2092   0.124   5.015   4.256  0.8710  0.1786  0.4216
  758SOL    HW1 2093   0.185   4.958   4.311 -1.1512 -0.2490  2.3793
  758SOL    HW2 2094   0.109   5.103   4.301  0.8347  0.6903 -0.5541
  759SOL     OW 2095   1.168   3.442   4.832  0.9020 -0.4427 -0.4415
  759SOL    HW1 2096   1.118   3.488   4.759 -0.1500  1.1604  1.2136
  759SOL    HW2 2097   1.204   3.355   4.798  0.7585  0.4072 -2.9328
  760SOL     OW 2098   0.987   4.718   5.022 -0.3047 -0.0494  0.1869
  760SOL    HW1 2099   1.069   4.774   5.035 -0.6278  0.3390  0.5790
  760SOL    HW2 2100   0.948   4.737   4.932  0.8484 -1.3173 -0.6238
  761SOL     OW 2101   1.826   3.355   0.197  0.0824 -0.3150 -0.0451
  761SOL    HW1 2102   1.911   3.325   0.155 -0.3768  0.3870 -1.5232
  761SOL    HW2 2103   1.827   3.332   0.294  1.3067 -1.6980 -0.3538
  762SOL     OW 2104   1.686   3.368   1.028  0.1779 -0.7524  0.3529
  762SOL    HW1 2105   1.770   3.324   0.999 -0.3072 -0.8896 -0.9111
  762SOL    HW2 2106   1.696   3.468   1.020 -0.4629 -0.8068 -1.9588
  763SOL     OW 2107   0.021   2.333   0.170  0.3672  0.8081 -0.3085
  763SOL    HW1 2108   0.116   2.343   0.142  0.6169  1.7637  0.8214
  763SOL    HW2 2109   0.001   2.236   0.187  1.0657  0.5797 -0.7594
  764SOL     OW 2110   4.628   2.857   0.714  0.3568  0.4140 -0.1389
  764SOL    HW1 2111   4.571   2.855   0.632  1.0360  1.2164 -0.6492
  764SOL    HW2 2112   4.573   2.886   0.792  0.0552  1.2385 -0.6374
  765SOL     OW 2113   0.277   3.794   3.352  0.2572 -0.6383  0.3735
  765SOL    HW1 2114   0.261   3.788   3.253 -0.5127 -0.6553  0.4921
  765SOL    HW2 2115   0.352   3.858   3.369 -2.6285  3.2501 -0.0392
  766SOL     OW 2116   1.169   1.946   4.911 -0.5031  0.6256 -0.3178
  766SOL    HW1 2117   1.230   1.866   4.909 -2.2319 -0.8020  0.6592
  766SOL    HW2 2118   1.198   2.012   4.842  1.8648 -0.1652 -0.1540
  767SOL     OW 2119   4.657   0.895   0.256 -0.6169  0.2323  0.1573
  767SOL    HW1 2120   4.573   0.853   0.291 -0.3315 -0.8583 -0.4163
  767SOL    HW2 2121   4.636   0.946   0.172 -0.8446  0.6586  0.4703
  768SOL     OW 2122   0.891   3.146   4.829 -0.6175 -0.9661  0.4660
  768SOL    HW1 2123   0.914   3.125   4.924 -1.2907 -1.8653  0.4490
  768SOL    HW2 2124   0.837   3.230   4.826 -0.6751 -0.9851  0.8943
  769SOL     OW 2125   1.961   2.908   4.104  0.0812 -0.0629 -0.2010
  769SOL    HW1 2126   2.046   2.876   4.146 -0.5279 -0.5440  0.6945
  769SOL    HW2 2127   1.883   2.866   4.151 -0.6252 -1.0159 -2.1249
  770SOL     OW 2128   2.376   1.459   2.414  0.3079  0.0309  0.3737
  770SOL    HW1 2129   2.441   1.411   2.473  0.5664  0.2975  0.3098
  770SOL    HW2 2130   2.284   1.453   2.453  0.4572  0.1007  0.7347
  771SOL     OW 2131   4.699   4.154   4.792  0.0838  0.0736  0.4002
  771SOL    HW1 2132   4.705   4.247   4.757  1.9669 -0.4973 -0.9685
  771SOL    HW2 2133   4.776   4.137   4.854  0.6446 -1.0202 -0.5644
  772SOL     OW 2134   4.244   2.535   0.751 -0.2549 -1.2438 -0.0529
  772SOL    HW1 2135   4.276   2.511   0.660 -0.9558  1.0743 -1.0043
  772SOL    HW2 2136   4.321   2.558   0.810  0.1191 -0.9810 -0.6431
  773SOL     OW 2137   3.341   2.425   0.621  0.2423 -0.1524  0.2861
  773SOL    HW1 2138   3.255   2.429   0.671  0.4139  2.5036  0.5054
  773SOL    HW2 2139   3.325   2.447   0.524  0.7063  0.8841  0.4301
  774SOL     OW 2140   1.877   1.517   3.162  0.2549  0.5283 -0.2557
  774SOL    HW1 2141   1.860   1.518   3.063 -0.3524  2.2582 -0.1708
  774SOL    HW2 2142   1.806   1.570   3.208  0.7294  0.0251  1.0828
  775SOL     OW 2143   4.891   3.529   0.487 -0.1786 -0.2172  0.0299
  775SOL    HW1 2144   4.811   3.587   0.470  0.6665  2.3054  3.5519
  775SOL    HW2 2145   4.970   3.565   0.437 -0.0585  0.7183  0.8550
  776SOL     OW 2146   0.533   2.793   1.742 -0.1306  0.5648  0.0688
  776SOL    HW1 2147   0.435   2.808   1.728  0.3045  1.9929 -1.9161
  776SOL    HW2 2148   0.584   2.860   1.689  1.9805 -1.7172 -0.9662
  777SOL     OW 2149   1.663   0.497   0.117 -0.3663  0.0078  0.3750
  777SOL    HW1 2150   1.683   0.561   0.043  0.5854 -0.2983  0.3530
  777SOL    HW2 2151   1.733   0.503   0.188 -1.0247 -0.0229  1.0460
  778SOL     OW 2152   0.713   3.591   4.916 -0.0354 -0.2604  0.0173
  778SOL    HW1 2153   0.685   3.684   4.891  1.9534  0.3089 -0.2347
  778SOL    HW2 2154   0.751   3.592   5.009  1.1892 -0.5522 -0.4641
  779SOL     OW 2155   1.032   2.510   0.213  0.1872  0.4835 -0.2139
  779SOL    HW1 2156   0.934   2.524   0.231  0.2542 -1.0726  1.7147
  779SOL    HW2 2157   1.042   2.454   0.130 -0.6272 -0.1421  0.0915
  780SOL     OW 2158   0.645   1.938   0.835 -0.0524  0.4719 -0.0640
  780SOL    HW1 2159   0.579   1.973   0.769 -0.5133 -0.0591  0.1058
  780SOL    HW2 2160   0.605   1.939   0.927 -0.1143 -0.5546 -0.0657
  781SOL     OW 2161   4.413   3.557   3.905 -1.1652  0.0405 -0.2210
  781SOL    HW1 2162   4.374   3.623   3.841 -2.3307 -0.1741  0.2382
  781SOL    HW2 2163   4.415   3.467   3.863  0.9866  0.4122 -1.0733
  782SOL     OW 2164   0.333   1.801   1.009  0.0110 -0.1005  0.3931
  782SOL    HW1 2165   0.381   1.736   0.951 -1.3605 -1.5181  0.7837
  782SOL    HW2 2166   0.330   1.890   0.964  3.0052  0.1133  0.3889
  783SOL     OW 2167   3.895   1.820   4.528 -0.4564  0.1689  0.6627
  783SOL    HW1 2168   3.942   1.828   4.440 -0.7351 -0.6371  0.4278
  783SOL    HW2 2169   3.955   1.773   4.593  0.8487  3.1387  1.7798
  784SOL     OW 2170   1.647   1.031   1.966 -0.0635  0.1878 -0.5515
  784SOL    HW1 2171   1.702   0.948   1.968  0.3554  0.4747  0.1680
  784SOL    HW2 2172   1.690   1.101   2.023  0.4291  1.4325 -2.3915
  785SOL     OW 2173   4.634   2.356   1.318 -0.8992 -0.5271 -0.1331
  785SOL    HW1 2174   4.582   2.311   1.391 -0.0891 -0.5133  0.4725
  785SOL    HW2 2175   4.583   2.351   1.233 -2.9138  1.3685  0.8580
  786SOL     OW 2176   0.876   3.787   0.443 -0.1771 -0.3169 -0.1015
  786SOL    HW1 2177   0.813   3.864   0.432 -1.2141 -1.1397 -0.0582
  786SOL    HW2 2178   0.825   3.705   0.469  1.0983 -0.6662  1.4589
  787SOL     OW 2179   1.087   3.576   2.096  0.4129  0.4649  0.3548
  787SOL    HW1 2180   1.081   3.519   2.178 -0.0062  1.8628  1.3303
  787SOL    HW2 2181   1.000   3.574   2.047  0.9055 -0.9983 -0.5298
  788SOL     OW 2182   0.781   0.903   0.494  0.5776  1.0913  0.1034
  788SOL    HW1 2183   0.825   0.993   0.502  0.0814  1.6178 -2.3274
  788SOL    HW2 2184   0.714   0.905   0.420 -0.5219 -0.9012  0.9612
  789SOL     OW 2185   4.541   2.005   4.298 -0.4407  0.0405 -0.2295
  789SOL    HW1 2186   4.506   2.059   4.222  1.4582  0.7591 -0.6345
  789SOL    HW2 2187   4.468   1.992   4.366 -1.3331  1.9283 -0.7705
  790SOL     OW 2188   1.453   0.105   0.674 -0.2745 -0.0491 -0.1718
  790SOL    HW1 2189   1.471   0.201   0.694 -1.0878 -0.0959  0.8720
  790SOL    HW2 2190   1.357   0.084   0.695  0.0945 -1.2773  0.3895
  791SOL     OW 2191   0.248   1.783   0.331  0.3888 -0.1018  0.3365
  791SOL    HW1 2192   0.226   1.742   0.420 -2.0457 -0.6765 -0.4576
  791SOL    HW2 2193   0.307   1.721   0.279  1.9566  0.2958  1.5353
  792SOL     OW 2194   0.842   1.998   0.514 -0.6517  0.8054  0.2840
  792SOL    HW1 2195   0.750   1.962   0.503 -0.9945  0.9808  2.2462
  792SOL    HW2 2196   0.909   1.925   0.500 -1.2370 -0.0328  1.6706
  793SOL     OW 2197   0.502   1.700   0.628  0.6169 -0.1545  0.0826
  793SOL    HW1 2198   0.521   1.798   0.619  1.3424 -0.3104 -0.1862
  793SOL    HW2 2199   0.405   1.683   0.615  0.7934  0.2819 -2.0997
  794SOL     OW 2200   1.788   0.351   3.552  0.3920 -0.6638  0.1071
  794SOL    HW1 2201   1.807   0.438   3.597  0.4573 -0.3884 -0.4457
  794SOL    HW2 2202   1.693   0.350   3.520  1.0422  0.1653 -1.9733
  795SOL     OW 2203   1.709   4.096   3.240 -0.7068  0.2939  0.2006
  795SOL    HW1 2204   1.734   4.000   3.227  1.4503  0.8785 -0.3382
  795SOL    HW2 2205   1.611   4.102   3.261 -0.7660 -2.0511  0.8804
  796SOL     OW 2206   1.729   3.068   2.023  0.2517 -0.2729  0.4287
  796SOL    HW1 2207   1.738   3.051   2.121 -0.7642 -1.2516  0.3695
  796SOL    HW2 2208   1.769   3.157   2.001  0.2827  0.0637  1.7634
  797SOL     OW 2209   0.760   1.278   4.878 -0.2253 -0.0303  0.6832
  797SOL    HW1 2210   0.674   1.327   4.889 -0.1822  0.0574  0.6292
  797SOL    HW2 2211   0.834   1.328   4.924 -0.2927 -0.3645  1.1669
  798SOL     OW 2212   0.294   3.223   0.468 -0.3593  0.2757 -0.1724
  798SOL    HW1 2213   0.251   3.272   0.392 -2.1011 -1.2925 -0.2436
  798SOL    HW2 2214   0.224   3.182   0.526  0.8725  1.8561  2.6684
  799SOL     OW 2215   0.274   1.136   1.817 -0.2860  0.0613 -0.0642
  799SOL    HW1 2216   0.256   1.235   1.815 -1.9940 -0.2235 -0.0172
  799SOL    HW2 2217   0.191   1.087   1.841  0.6721 -1.3851  0.4563
  800SOL     OW 2218   0.822   2.192   1.295  0.0936  0.0359 -0.0285
  800SOL    HW1 2219   0.817   2.182   1.196 -0.8253  2.0538 -0.2242
  800SOL    HW2 2220   0.741   2.151   1.337  0.7846 -1.3958 -0.0066
  801SOL     OW 2221   1.508   2.248   4.933 -0.6120  0.3758 -0.7627
  801SOL    HW1 2222   1.522   2.225   5.029  0.5294  1.9689 -0.4976
  801SOL    HW2 2223   1.589   2.222   4.880 -1.4599 -1.0191 -1.4314
  802SOL     OW 2224   1.597   3.081   1.502  0.2704  0.1139 -0.3017
  802SOL    HW1 2225   1.592   3.111   1.407  0.6095  0.5977 -0.1721
  802SOL    HW2 2226   1.507   3.089   1.544  0.6252  2.4108  0.1473
  803SOL     OW 2227   1.526   2.040   0.830  0.6142 -0.5617 -0.1846
  803SOL    HW1 2228   1.444   1.983   0.828  1.3061 -1.5728 -0.9118
  803SOL    HW2 2229   1.607   1.982   0.820  1.4907  0.3013  1.5841
  804SOL     OW 2230   4.205   2.161   4.870 -0.2669 -0.0362 -0.4066
  804SOL    HW1 2231   4.143   2.177   4.794 -0.1842 -1.3582 -0.7700
  804SOL    HW2 2232   4.259   2.078   4.853  0.7527  0.4200  0.4464
  805SOL     OW 2233   0.663   0.346   2.482 -0.2710 -0.8907  0.0971
  805SOL    HW1 2234   0.614   0.320   2.399 -0.5819 -0.9289  0.2895
  805SOL    HW2 2235   0.597   0.369   2.554 -0.0648  2.2204 -0.5922
  806SOL     OW 2236   0.928   3.817   2.002 -0.7062  0.0904 -0.0555
  806SOL    HW1 2237   0.930   3.904   2.052 -0.8187 -0.3216  0.6830
  806SOL    HW2 2238   0.997   3.755   2.040 -1.8120 -0.7701  0.6168
  807SOL     OW 2239   4.466   0.309   4.920 -0.4948  0.0225  0.3852
  807SOL    HW1 2240   4.420   0.397   4.933 -0.3810  0.1298  0.0556
  807SOL    HW2 2241   4.472   0.288   4.823 -0.1703 -0.1638  0.4443
  808SOL     OW 2242   0.735   0.406   0.934 -0.0121 -0.5228 -0.1246
  808SOL    HW1 2243   0.732   0.307   0.948  0.9613 -0.8157 -1.7452
  808SOL    HW2 2244   0.651   0.436   0.890 -0.0547 -0.7316 -0.1866
  809SOL     OW 2245   1.360   1.421   0.626 -0.6217  0.0398  0.4325
  809SOL    HW1 2246   1.376   1.336   0.575  2.5728 -0.5725  2.2082
  809SOL    HW2 2247   1.336   1.494   0.561 -0.7355 -1.5661 -1.4419
  810SOL     OW 2248   0.193   3.506   2.631  0.0348  0.4586 -0.5008
  810SOL    HW1 2249   0.206   3.410   2.607  0.9012  0.8240 -1.5919
  810SOL    HW2 2250   0.260   3.532   2.700 -2.0543 -0.4273  2.0351
  811SOL     OW 2251   4.276   3.040   3.718 -0.2279 -0.3464  0.1128
  811SOL    HW1 2252   4.258   2.943   3.733 -1.5142 -0.2813 -0.8219
  811SOL    HW2 2253   4.195   3.093   3.742  1.1460  0.7611  2.6698
  812SOL     OW 2254   3.839   2.589   0.829 -0.2468  0.5479  0.1257
  812SOL    HW1 2255   3.848   2.644   0.911  2.0192 -0.3376  0.5616
  812SOL    HW2 2256   3.763   2.525   0.838 -0.9648  1.4956  0.8728
  813SOL     OW 2257   3.873   3.501   0.534 -0.0306  0.1466  0.4632
  813SOL    HW1 2258   3.912   3.586   0.569  0.5025  0.9201 -1.7876
  813SOL    HW2 2259   3.940   3.457   0.473 -0.9114 -1.0247  0.3173
  814SOL     OW 2260   1.187   3.292   0.332  0.0050  0.1265  0.1266
  814SOL    HW1 2261   1.236   3.241   0.261  0.7733 -0.4114  1.0047
  814SOL    HW2 2262   1.092   3.306   0.304 -0.1204 -1.4360 -0.3358
  815SOL     OW 2263   0.678   2.965   0.464 -0.6921 -0.2375 -0.3045
  815SOL    HW1 2264   0.773   2.992   0.448 -1.1236  0.6066 -1.5822
  815SOL    HW2 2265   0.622   2.990   0.384 -2.4081  1.3170  1.2871
  816SOL     OW 2266   0.244   3.282   1.987 -0.2429 -0.0768 -0.4171
  816SOL    HW1 2267   0.245   3.229   1.903  1.9029 -1.6465  0.4865
  816SOL    HW2 2268   0.173   3.247   2.048 -0.5390 -0.1975 -0.8316
  817SOL     OW 2269   4.804   3.300   1.680 -0.0383  0.1134 -1.0312
  817SOL    HW1 2270   4.812   3.209   1.639 -0.8059  0.3587 -1.7628
  817SOL    HW2 2271   4.724   3.346   1.642  0.3048  1.0706 -0.6153
  818SOL     OW 2272   1.733   1.279   2.073  0.8049  0.1301 -0.3336
  818SOL    HW1 2273   1.684   1.287   2.160  1.1975  1.0124 -0.1808
  818SOL    HW2 2274   1.829   1.305   2.087  1.2466 -1.2491 -0.6979
  819SOL     OW 2275   1.032   2.273   0.811 -0.1243  0.3891  0.1445
  819SOL    HW1 2276   1.015   2.359   0.859  0.6966  1.2126 -1.0014
  819SOL    HW2 2277   0.945   2.225   0.798 -0.3084 -0.2483  3.0690
  820SOL     OW 2278   4.589   3.203   0.769 -0.3817  0.0517  0.2413
  820SOL    HW1 2279   4.617   3.172   0.678  1.8278  0.2603  0.8047
  820SOL    HW2 2280   4.575   3.302   0.768  2.5590  0.5699  0.7110
  821SOL     OW 2281   1.592   4.190   0.782 -0.4807  0.2531 -0.4322
  821SOL    HW1 2282   1.637   4.258   0.840  0.6631  0.0953 -1.1082
  821SOL    HW2 2283   1.543   4.236   0.708 -1.5530  0.4298  0.3561
  822SOL     OW 2284   1.393   3.944   0.009 -0.3405 -0.2350 -0.0505
  822SOL    HW1 2285   1.388   4.004   0.089  1.9345 -0.1250  0.0691
  822SOL    HW2 2286   1.406   3.849   0.038 -1.8903 -0.5485 -0.2841
  823SOL     OW 2287   4.486   2.216   3.680  0.1012 -0.2945 -0.2582
  823SOL    HW1 2288   4.552   2.291   3.679 -1.0098  0.7154 -1.6254
  823SOL    HW2 2289   4.534   2.129   3.670  1.4240  0.1951  1.3973
  824SOL     OW 2290   1.481   1.264   1.062 -0.0230 -0.1093  0.4036
  824SOL    HW1 2291   1.426   1.207   1.123  1.6687 -0.0685  2.0841
  824SOL    HW2 2292   1.435   1.274   0.974 -1.9604 -1.2416  1.2309
  825SOL     OW 2293   4.616   4.830   0.555  0.2008 -0.1882  0.0013
  825SOL    HW1 2294   4.608   4.760   0.627  1.1948  0.4209  0.7245
  825SOL    HW2 2295   4.653   4.788   0.472 -0.4123 -0.7790  0.0182
  826SOL     OW 2296   5.001   2.688   1.208  0.3329 -0.5408 -0.6325
  826SOL    HW1 2297   4.930   2.755   1.187  0.8537  1.4888  3.1826
  826SOL    HW2 2298   4.962   2.613   1.261  0.6585 -0.4665 -0.2781
  827SOL     OW 2299   0.977   2.498   1.618  0.0355 -0.1893  0.0864
  827SOL    HW1 2300   0.947   2.421   1.674 -0.6141 -0.6887 -0.9169
  827SOL    HW2 2301   0.944   2.487   1.524  0.9142  0.7293 -0.3653
  828SOL     OW 2302   2.521   2.248   4.913 -0.1035  0.0544  0.4196
  828SOL    HW1 2303   2.547   2.201   4.997 -1.7805 -2.4649 -0.3892
  828SOL    HW2 2304   2.522   2.347   4.929 -0.6292 -0.3428  3.4596
  829SOL     OW 2305   1.126   2.070   4.400  0.2434  0.6152  0.3001
  829SOL    HW1 2306   1.080   2.131   4.335 -0.0514 -2.7620 -3.0201
  829SOL    HW2 2307   1.062   2.044   4.473 -2.0401 -0.8783 -2.0395
  830SOL     OW 2308   4.558   2.307   1.048  0.4690 -0.1248 -0.3392
  830SOL    HW1 2309   4.623   2.258   0.990 -1.0254 -1.2347 -1.1484
  830SOL    HW2 2310   4.465   2.275   1.029 -0.6615  3.1696 -1.0837
  831SOL     OW 2311   2.055   0.348   0.884 -0.4857  0.0705 -0.2043
  831SOL    HW1 2312   2.098   0.422   0.935 -0.6531  0.0736 -0.0684
  831SOL    HW2 2313   1.985   0.304   0.940 -0.0191 -0.5389 -0.0887
  832SOL     OW 2314   2.028   3.261   1.458  0.2558 -0.0651  0.2698
  832SOL    HW1 2315   2.074   3.217   1.536 -0.9653 -2.6020 -0.3276
  832SOL    HW2 2316   1.961   3.198   1.419  0.1741  1.4778 -2.3113
  833SOL     OW 2317   4.668   2.217   0.770  0.0878 -0.0955 -0.4027
  833SOL    HW1 2318   4.664   2.232   0.671 -1.0009 -0.3304 -0.4123
  833SOL    HW2 2319   4.675   2.119   0.789 -1.5230 -0.2094 -0.2461
  834SOL     OW 2320   1.723   2.074   0.447  0.4244  0.2324  0.5689
  834SOL    HW1 2321   1.691   2.118   0.530 -1.7368  0.6249 -0.4061
  834SOL    HW2 2322   1.645   2.048   0.390  1.7806 -1.2597 -0.7315
  835SOL     OW 2323   3.284   3.236   1.941 -0.1371  0.1551  0.0072
  835SOL    HW1 2324   3.379   3.226   1.970 -0.0087  0.6371 -0.2337
  835SOL    HW2 2325   3.276   3.317   1.882 -0.2873 -1.0432 -1.6845
  836SOL     OW 2326   1.263   0.398   1.801 -0.1048 -0.5647 -0.7346
  836SOL    HW1 2327   1.350   0.358   1.831 -1.1247 -2.5575 -0.2203
  836SOL    HW2 2328   1.209   0.328   1.753 -0.2920  1.3964 -3.5730
  837SOL     OW 2329   4.386   2.633   0.102 -0.5744 -0.1189 -0.5606
  837SOL    HW1 2330   4.469   2.607   0.152 -0.5548  0.3592 -0.3456
  837SOL    HW2 2331   4.372   2.569   0.027 -0.8474 -1.1193  0.3154
  838SOL     OW 2332   0.275   1.556   4.329  0.0638 -0.3445  0.2540
  838SOL    HW1 2333   0.304   1.652   4.330  2.0015 -0.8862  0.5854
  838SOL    HW2 2334   0.258   1.525   4.423 -0.2342 -0.4247  0.1752
  839SOL     OW 2335   0.719   1.626   0.483  0.5400 -0.3886  0.2948
  839SOL    HW1 2336   0.704   1.694   0.411  1.2725 -0.6763 -0.1476
  839SOL    HW2 2337   0.637   1.618   0.539 -1.0345 -1.9663 -2.0479
  840SOL     OW 2338   0.908   1.308   0.790  0.1867 -0.0256 -0.0413
  840SOL    HW1 2339   0.861   1.242   0.847 -0.2802 -0.3249 -0.7584
  840SOL    HW2 2340   0.987   1.264   0.746 -0.3063 -0.2114 -0.7658
  841SOL     OW 2341   3.998   2.997   1.463 -0.2645 -0.3046 -0.0082
  841SOL    HW1 2342   3.912   2.995   1.412  0.4775 -1.2800 -1.2768
  841SOL    HW2 2343   3.989   2.940   1.545  0.0033 -2.8041 -1.6194
  842SOL     OW 2344   5.000   3.656   0.019  0.1441  0.0154  0.4447
  842SOL    HW1 2345   4.926   3.688  -0.041  1.2271  0.6529 -0.5752
  842SOL    HW2 2346   5.050   3.583  -0.026  1.3397  0.8962  0.3023
  843SOL     OW 2347   1.040   1.933   2.285  0.3917 -0.2255  0.4546
  843SOL    HW1 2348   0.960   1.896   2.331  2.4758 -2.5503  2.5015
  843SOL    HW2 2349   1.086   1.998   2.344  1.2239 -0.6327  0.2792
  844SOL     OW 2350   1.887   1.793   2.127 -0.5321 -0.0151  0.7018
  844SOL    HW1 2351   1.885   1.725   2.053  0.9835 -0.4638  1.0427
  844SOL    HW2 2352   1.855   1.881   2.092  1.9708  0.2927 -1.0407
  845SOL     OW 2353   1.010   0.799   0.541 -0.0029  0.0241 -0.4458
  845SOL    HW1 2354   1.002   0.719   0.599  0.4622 -2.0553 -3.0477
  845SOL    HW2 2355   0.920   0.837   0.523 -0.2660 -0.1348  0.4939
  846SOL     OW 2356   0.563   3.300   0.229 -0.1062 -0.8134  0.0376
  846SOL    HW1 2357   0.545   3.202   0.241  1.1367 -1.3172 -1.8599
  846SOL    HW2 2358   0.632   3.329   0.295 -0.2399 -1.2935  0.3977
  847SOL     OW 2359   0.559   2.715   3.578 -0.2068  0.0254  0.1876
  847SOL    HW1 2360   0.647   2.738   3.620  0.7256 -1.1048 -1.0827
  847SOL    HW2 2361   0.572   2.648   3.506 -2.0103  0.5515 -0.6978
  848SOL     OW 2362   4.998   3.184   4.686 -0.0195  0.0173  0.0832
  848SOL    HW1 2363   4.963   3.271   4.651 -0.7911  0.6408  2.2414
  848SOL    HW2 2364   5.036   3.198   4.777 -0.3254 -1.9675  0.5574
  849SOL     OW 2365   2.944   0.988   2.137 -0.1963  0.0402  0.1035
  849SOL    HW1 2366   2.901   1.002   2.226  0.4752  0.9127  0.3063
  849SOL    HW2 2367   2.928   0.894   2.106 -1.6851  0.1493  0.4573
  850SOL     OW 2368   0.564   2.812   2.606 -0.1081 -0.3231  0.0424
  850SOL    HW1 2369   0.526   2.724   2.578 -0.9720  0.4897 -1.4693
  850SOL    HW2 2370   0.572   2.872   2.526  0.9970  0.7873  0.9425
  851SOL     OW 2371   3.488   0.048   0.682  0.5145  0.1000 -0.2862
  851SOL    HW1 2372   3.545   0.007   0.610  0.6415 -0.2178 -0.0046
  851SOL    HW2 2373   3.472   0.144   0.660 -0.0336 -0.1668 -1.1067
  852SOL     OW 2374   2.761   4.271   2.377  0.1041  0.3305  0.5199
  852SOL    HW1 2375   2.707   4.333   2.433 -0.8423 -0.4457  0.4769
  852SOL    HW2 2376   2.806   4.204   2.435 -0.2344  0.0163  0.4190
  853SOL     OW 2377   0.469   3.318   4.209 -0.0712 -0.2016  0.2598
  853SOL    HW1 2378   0.518   3.296   4.125  0.6942 -0.9199  0.8855
  853SOL    HW2 2379   0.485   3.413   4.234  1.2951 -0.5156  0.6373
  854SOL     OW 2380   0.525   3.766   0.257 -0.5279  0.3694 -0.6296
  854SOL    HW1 2381   0.580   3.838   0.216 -2.4154  0.6947 -2.7648
  854SOL    HW2 2382   0.498   3.793   0.349  2.2736  0.4418  0.2699
  855SOL     OW 2383   0.997   2.457   2.057 -0.1616 -0.1210 -0.6481
  855SOL    HW1 2384   0.958   2.500   1.975 -0.9258 -1.9344 -1.2957
  855SOL    HW2 2385   0.989   2.358   2.049  1.9238 -0.4466  0.5888
  856SOL     OW 2386   0.310   1.475   0.389 -0.7001  0.2549  0.0099
  856SOL    HW1 2387   0.288   1.462   0.485 -1.7553  1.1683 -0.0880
  856SOL    HW2 2388   0.392   1.422   0.366 -1.7245 -1.7954  0.8425
  857SOL     OW 2389   2.859   3.038   0.470  0.3838 -0.6815  0.0809
  857SOL    HW1 2390   2.952   3.051   0.504  0.0281 -1.2935  1.3229
  857SOL    HW2 2391   2.811   2.971   0.526 -0.6057 -0.8840 -0.9502
  858SOL     OW 2392   0.696   2.332   1.863  0.3726 -0.2547  0.6843
  858SOL    HW1 2393   0.784   2.328   1.816  0.0392  0.5735 -0.0348
  858SOL    HW2 2394   0.648   2.416   1.837 -1.5407 -1.6510 -0.5808
  859SOL     OW 2395   0.175   3.394   0.304  0.0725  0.1203 -0.2748
  859SOL    HW1 2396   0.123   3.469   0.344  3.0245  0.8263  2.6976
  859SOL    HW2 2397   0.256   3.431   0.258  0.7480 -1.1339 -0.1362
  860SOL     OW 2398   2.111   3.846   1.654  0.3863  0.3276  0.0272
  860SOL    HW1 2399   2.115   3.755   1.695  2.1425 -0.1732 -1.1165
  860SOL    HW2 2400   2.018   3.864   1.622  0.4567 -2.1429 -1.9264
  861SOL     OW 2401   1.487   0.742   0.396  0.6248  0.3526  0.0130
  861SOL    HW1 2402   1.409   0.719   0.454  0.7967 -0.9544 -0.2438
  861SOL    HW2 2403   1.459   0.807   0.325 -0.6057 -1.2411 -1.0041
  862SOL     OW 2404   1.069   4.591   1.817 -0.4576  0.2729 -0.3800
  862SOL    HW1 2405   0.985   4.584   1.870 -1.2323  0.4244 -1.5398
  862SOL    HW2 2406   1.148   4.601   1.878 -1.3987  1.2955  0.6970
  863SOL     OW 2407   0.723   2.686   0.555  0.0140  0.4866 -0.0988
  863SOL    HW1 2408   0.701   2.683   0.652  2.3622  0.1783  0.4588
  863SOL    HW2 2409   0.711   2.780   0.521 -1.4283  0.4726  0.2915
  864SOL     OW 2410   3.120   3.955   2.689 -0.5086 -0.3061  0.3365
  864SOL    HW1 2411   3.184   3.878   2.686 -2.4583 -2.1799  2.6450
  864SOL    HW2 2412   3.073   3.963   2.602  0.4083 -1.0990 -0.2563
  865SOL     OW 2413   4.338   2.056   4.496  0.1546 -0.0105 -0.1754
  865SOL    HW1 2414   4.326   2.155   4.494  2.1405  0.2771 -0.4613
  865SOL    HW2 2415   4.273   2.013   4.433 -1.0920  1.0507  0.3598
  866SOL     OW 2416   0.859   2.002   1.556 -0.0878  0.2460 -0.2268
  866SOL    HW1 2417   0.933   2.011   1.489  1.6888 -2.0270  1.2482
  866SOL    HW2 2418   0.771   2.021   1.513  1.1951  1.3728 -2.4905
  867SOL     OW 2419   1.500   3.379   3.933  0.4809 -0.1736 -0.0675
  867SOL    HW1 2420   1.544   3.457   3.888 -1.0727  1.4460  1.0720
  867SOL    HW2 2421   1.564   3.337   3.997  0.5591  2.0142  1.4342
  868SOL     OW 2422   2.619   3.392   1.667 -0.0019 -0.0901 -0.1535
  868SOL    HW1 2423   2.559   3.319   1.637 -2.4046  1.3425  0.9094
  868SOL    HW2 2424   2.589   3.479   1.628  1.8472  0.5981 -0.1694
  869SOL     OW 2425   1.502   0.435   0.425 -1.4662 -0.0615  0.1336
  869SOL    HW1 2426   1.465   0.430   0.517  0.3806  0.8186  0.9775
  869SOL    HW2 2427   1.521   0.531   0.402  2.6131 -0.5116  0.8438
  870SOL     OW 2428   4.849   4.596   1.700 -0.1467  0.2615 -0.1503
  870SOL    HW1 2429   4.922   4.591   1.768  0.1230  0.0749 -0.4474
  870SOL    HW2 2430   4.789   4.517   1.709 -1.5664  1.4569  1.4740
  871SOL     OW 2431   1.284   1.854   4.606 -0.4661 -0.6162 -0.4790
  871SOL    HW1 2432   1.284   1.946   4.566 -0.3907 -0.3211  0.1909
  871SOL    HW2 2433   1.246   1.858   4.698 -1.1429 -1.3842 -0.7178
  872SOL     OW 2434   1.736   1.980   1.471 -0.0121 -0.0451  0.7426
  872SOL    HW1 2435   1.698   1.891   1.450  0.8834 -0.7182  1.8446
  872SOL    HW2 2436   1.672   2.031   1.528  1.0196 -1.5628  3.4444
  873SOL     OW 2437   4.544   1.609   0.693  0.1775  0.0223 -0.2122
  873SOL    HW1 2438   4.573   1.607   0.597 -0.7937  0.4963 -0.5311
  873SOL    HW2 2439   4.468   1.673   0.703  0.2597 -0.0361  0.8789
  874SOL     OW 2440   0.843   4.076   4.162  0.8342  0.4535 -0.1792
  874SOL    HW1 2441   0.902   4.046   4.087 -0.5098 -0.2786 -0.9886
  874SOL    HW2 2442   0.813   4.170   4.145  2.9313  1.4017  1.0144
  875SOL     OW 2443   4.956   2.528   0.024 -0.1936 -0.6580 -0.0096
  875SOL    HW1 2444   4.972   2.462   0.098 -1.3190  0.8339  1.6149
  875SOL    HW2 2445   4.859   2.531   0.003 -0.2089  0.7872  0.2291
  876SOL     OW 2446   1.305   4.139   0.982  0.6585 -0.1060  0.2607
  876SOL    HW1 2447   1.238   4.146   0.908  0.6574  0.6760  0.3299
  876SOL    HW2 2448   1.364   4.059   0.967  0.5063 -0.0833 -0.4520
  877SOL     OW 2449   0.970   2.522   4.767 -0.3273  0.3081 -0.2017
  877SOL    HW1 2450   1.008   2.461   4.837  1.6538  0.7332 -0.8262
  877SOL    HW2 2451   0.891   2.570   4.804 -1.1753 -1.6852  0.7251
  878SOL     OW 2452   3.586   1.859   0.952 -0.3878  0.0585 -0.4466
  878SOL    HW1 2453   3.509   1.811   0.911 -1.9021  0.2609  1.9640
  878SOL    HW2 2454   3.584   1.955   0.924 -1.1606  0.1116 -0.2433
  879SOL     OW 2455   0.858   4.224   0.214  0.3891 -0.2694  0.0079
  879SOL    HW1 2456   0.844   4.169   0.297  0.2990 -0.4396 -0.1190
  879SOL    HW2 2457   0.908   4.170   0.147 -0.8265 -0.6782 -0.6104
  880SOL     OW 2458   2.228   0.899   0.958 -0.3933 -0.0672 -0.6646
  880SOL    HW1 2459   2.244   0.967   0.886 -0.8228  0.6153 -0.1365
  880SOL    HW2 2460   2.149   0.843   0.933  0.4862 -0.9617 -1.5093
  881SOL     OW 2461   0.332   3.504   0.575  0.9492  0.0930 -0.6595
  881SOL    HW1 2462   0.265   3.566   0.534  0.1459 -0.4371 -0.1701
  881SOL    HW2 2463   0.330   3.417   0.527  1.2373  0.0505 -0.5940
  882SOL     OW 2464   0.274   0.622   0.018 -0.3884  0.7855 -0.2608
  882SOL    HW1 2465   0.267   0.534   0.065 -0.8360  1.8890  1.8709
  882SOL    HW2 2466   0.188   0.672   0.028  0.7217  2.5418  0.8880
  883SOL     OW 2467   4.909   3.199   1.915 -0.9234  0.0940  0.7070
  883SOL    HW1 2468   4.880   3.252   1.835 -0.0601  0.8163  0.8568
  883SOL    HW2 2469   4.842   3.210   1.988 -3.0001 -2.5082 -0.6649
  884SOL     OW 2470   4.795   4.243   0.715 -0.3514  0.0468 -0.2518
  884SOL    HW1 2471   4.717   4.246   0.653  0.2092 -0.2101 -0.9832
  884SOL    HW2 2472   4.777   4.301   0.794 -1.4841 -0.3899 -0.1704
  885SOL     OW 2473   4.598   2.590   0.644 -0.5562  0.1448 -0.0682
  885SOL    HW1 2474   4.656   2.631   0.573 -0.5538  0.5858  0.1829
  885SOL    HW2 2475   4.517   2.549   0.603 -0.1752 -0.2770 -0.4018
  886SOL     OW 2476   0.804   2.134   0.734 -0.0627 -0.7797  0.5349
  886SOL    HW1 2477   0.759   2.065   0.791 -0.4506 -0.5476  0.5148
  886SOL    HW2 2478   0.839   2.091   0.651  0.1633 -1.0476  0.7661
  887SOL     OW 2479   0.015   4.184   0.619 -0.0849  0.3192 -0.2242
  887SOL    HW1 2480   0.033   4.233   0.534  2.5235  2.3102  1.3047
  887SOL    HW2 2481  -0.079   4.202   0.648 -0.5457  0.8192 -1.9200
  888SOL     OW 2482   1.299   2.955   0.651 -0.5253 -0.1127 -0.1748
  888SOL    HW1 2483   1.327   2.948   0.747  0.4935 -0.4638 -0.4805
  888SOL    HW2 2484   1.374   2.924   0.593 -1.3887 -0.5807 -1.0609
  889SOL     OW 2485   1.096   3.682   0.568  0.3560 -0.1786  0.2625
  889SOL    HW1 2486   1.018   3.713   0.514 -1.6778 -2.8820  1.4567
  889SOL    HW2 2487   1.180   3.694   0.514 -1.1966  0.0100 -2.2658
  890SOL     OW 2488   0.591   1.948   1.110 -0.0276 -0.3669  0.4998
  890SOL    HW1 2489   0.654   1.893   1.164  1.0787 -0.3727 -0.7665
  890SOL    HW2 2490   0.503   1.900   1.102  0.7268 -1.7033 -0.0980
  891SOL     OW 2491   2.884   3.209   0.260  0.1610  0.4221 -0.0045
  891SOL    HW1 2492   2.845   3.203   0.167 -0.5164  1.8321  0.1685
  891SOL    HW2 2493   2.845   3.136   0.316  1.3382 -1.0883 -1.0679
  892SOL     OW 2494   2.045   4.082   0.514 -0.0863  0.2735 -0.3781
  892SOL    HW1 2495   2.106   4.081   0.594  0.5105  0.8426 -0.8214
  892SOL    HW2 2496   2.019   4.176   0.494 -0.0435  0.1537 -1.0022
  893SOL     OW 2497   4.715   2.981   5.010 -0.1236 -0.0724  0.2555
  893SOL    HW1 2498   4.790   2.964   5.074 -0.3826  0.6879  0.7708
  893SOL    HW2 2499   4.753   2.997   4.919  0.3287  0.0279  0.4553
  894SOL     OW 2500   3.888   2.814   0.122 -0.0021 -0.2102 -0.1228
  894SOL    HW1 2501   3.800   2.819   0.075 -0.2463 -3.2938 -0.1927
  894SOL    HW2 2502   3.916   2.718   0.131  1.4572  0.3780  3.4597
  895SOL     OW 2503   4.306   3.458   0.206 -0.4754 -0.1051  0.1459
  895SOL    HW1 2504   4.390   3.490   0.161 -1.5016  1.5741 -0.6774
  895SOL    HW2 2505   4.259   3.393   0.146 -0.0435 -0.6363  0.3767
  896SOL     OW 2506   2.698   1.759   2.215  0.2418  0.7290  0.0195
  896SOL    HW1 2507   2.751   1.738   2.133  0.5168  1.1192  0.0895
  896SOL    HW2 2508   2.622   1.696   2.223 -0.7833  1.7095 -1.4423
  897SOL     OW 2509   1.750   2.152   1.265  0.1880 -0.1931 -0.2013
  897SOL    HW1 2510   1.757   2.113   1.357  1.1810 -0.7802 -0.5105
  897SOL    HW2 2511   1.840   2.187   1.237 -0.5924  2.1271 -0.0459
  898SOL     OW 2512   0.757   1.706   4.879  0.5481 -0.0942 -0.3809
  898SOL    HW1 2513   0.698   1.726   4.801 -0.4632  0.4414  0.4900
  898SOL    HW2 2514   0.816   1.784   4.898  2.2009 -0.9370 -1.7714
  899SOL     OW 2515   1.026   4.732   2.209  0.6363  0.4836  0.4877
  899SOL    HW1 2516   1.088   4.799   2.248  2.0924 -0.8311  0.5213
  899SOL    HW2 2517   0.956   4.708   2.276  0.5174  1.4358  0.7143
  900SOL     OW 2518   4.270   2.322   2.065  0.6523  0.3896  0.1406
  900SOL    HW1 2519   4.325   2.295   1.986 -0.8788 -0.4693 -0.6820
  900SOL    HW2 2520   4.268   2.422   2.071  2.0604  0.4379  0.0410
  901SOL     OW 2521   4.545   1.770   2.947  0.2872 -0.6667  0.1398
  901SOL    HW1 2522   4.511   1.720   2.868 -2.5419 -1.1495  1.5484
  901SOL    HW2 2523   4.598   1.708   3.006  0.9636 -0.7169 -0.5015
  902SOL     OW 2524   1.329   3.664   0.428  0.5535 -0.1056 -0.1063
  902SOL    HW1 2525   1.364   3.622   0.344  2.4973 -2.1236  1.6100
  902SOL    HW2 2526   1.383   3.746   0.449  0.2234  0.2630 -0.6712
  903SOL     OW 2527   0.986   3.786   1.269 -0.1500 -0.3701  0.2861
  903SOL    HW1 2528   0.913   3.826   1.213  1.4327  3.6940  0.8167
  903SOL    HW2 2529   1.042   3.725   1.213 -0.4337  1.1780 -1.7735
  904SOL     OW 2530   0.834   1.094   0.943 -0.1474 -0.3160 -0.2394
  904SOL    HW1 2531   0.769   1.072   1.016  0.4550 -1.3011  0.0267
  904SOL    HW2 2532   0.883   1.011   0.916  1.8220  0.5651  0.3845
  905SOL     OW 2533   1.020   3.833   1.736  0.0814 -0.2606  0.6067
  905SOL    HW1 2534   0.962   3.801   1.811  0.8051 -1.7408  0.5875
  905SOL    HW2 2535   1.003   3.776   1.655 -0.9900  1.5771 -0.5205
  906SOL     OW 2536   2.017   2.318   1.489 -0.1270 -0.2033  0.1259
  906SOL    HW1 2537   1.980   2.336   1.581  1.9274  0.2036  0.9271
  906SOL    HW2 2538   2.008   2.221   1.468 -0.5345 -0.3187  0.7972
  907SOL     OW 2539   0.026   2.220   1.233  0.1453 -0.9382 -0.0999
  907SOL    HW1 2540  -0.035   2.183   1.163  1.6761 -0.8871 -1.5301
  907SOL    HW2 2541   0.092   2.149   1.259  0.6084 -0.4354  0.0944
  908SOL     OW 2542   1.471   2.933   1.125  0.4921  0.2361  0.4933
  908SOL    HW1 2543   1.445   2.986   1.206 -0.0921  0.6828  0.0220
  908SOL    HW2 2544   1.398   2.939   1.057  0.9198 -0.2513 -0.0138
  909SOL     OW 2545   0.031   0.412   2.637  0.2329 -0.5525  0.4676
  909SOL    HW1 2546   0.074   0.426   2.548 -0.2547  0.7183  0.4056
  909SOL    HW2 2547   0.097   0.374   2.701  0.7012 -1.0909 -0.3309
  910SOL     OW 2548   3.999   4.212   4.558 -0.3445  0.5073 -0.0815
  910SOL    HW1 2549   3.965   4.186   4.467 -1.9951  3.6266 -0.4936
  910SOL    HW2 2550   3.932   4.272   4.602  0.3678 -0.9616  3.3186
  911SOL     OW 2551   2.308   1.066   1.584  0.3344  0.2807  0.1057
  911SOL    HW1 2552   2.349   1.007   1.514 -1.2981 -1.1254  0.2646
  911SOL    HW2 2553   2.266   1.146   1.541 -3.6556 -2.1956 -1.1506
  912SOL     OW 2554   4.887   0.388   1.003 -0.1861  0.2759  0.1455
  912SOL    HW1 2555   4.980   0.353   1.009 -0.6172 -0.7624  1.1662
  912SOL    HW2 2556   4.873   0.431   0.914  0.2705 -2.4668 -1.3616
  913SOL     OW 2557   1.794   3.241   4.493  0.1228 -0.5657  0.3251
  913SOL    HW1 2558   1.822   3.278   4.404  2.5975  0.8519  1.5586
  913SOL    HW2 2559   1.805   3.142   4.493  1.0710 -0.4796 -0.6576
  914SOL     OW 2560   0.818   4.159   1.431 -0.2209  0.0563  0.0663
  914SOL    HW1 2561   0.733   4.202   1.462  0.3747  0.7378  0.8013
  914SOL    HW2 2562   0.856   4.104   1.505  0.2075  0.1186 -0.1042
  915SOL     OW 2563   4.980   3.068   4.141  0.5002  0.0542 -0.3949
  915SOL    HW1 2564   4.896   3.028   4.178  1.9098 -2.3157  0.5027
  915SOL    HW2 2565   4.966   3.090   4.045 -1.2052 -0.0666 -0.2179
  916SOL     OW 2566   0.596   3.402   0.623  0.0818  0.1888 -0.4733
  916SOL    HW1 2567   0.515   3.460   0.632  0.1328  0.1052  0.7221
  916SOL    HW2 2568   0.571   3.306   0.637  0.0485 -0.0747 -2.1491
  917SOL     OW 2569   2.471   1.307   0.677 -0.1868 -0.6597 -0.1467
  917SOL    HW1 2570   2.533   1.254   0.619  0.2836 -0.4997  0.1990
  917SOL    HW2 2571   2.524   1.373   0.730 -0.3244 -2.1423  1.9793
  918SOL     OW 2572   1.980   4.028   0.243  0.0121 -0.1059  0.1668
  918SOL    HW1 2573   2.023   4.105   0.196  0.0131 -0.4722 -0.4464
  918SOL    HW2 2574   2.015   4.022   0.336 -0.4215  0.9826  0.4152
  919SOL     OW 2575   1.183   3.843   3.763 -0.2435 -0.6027  0.5148
  919SOL    HW1 2576   1.111   3.776   3.742  0.1030 -0.6805 -0.4520
  919SOL    HW2 2577   1.256   3.799   3.815 -0.8700 -0.5313  1.4789
  920SOL     OW 2578   4.885   1.061   4.621 -0.2421  0.1901 -0.0534
  920SOL    HW1 2579   4.902   0.967   4.651 -0.8268 -0.6957 -2.3057
  920SOL    HW2 2580   4.960   1.091   4.561 -1.5215 -0.0144 -1.8237
  921SOL     OW 2581   2.050   3.081   4.723 -0.5890 -0.0119 -0.1828
  921SOL    HW1 2582   1.992   3.060   4.645 -1.8115 -0.7759  0.9003
  921SOL    HW2 2583   2.074   3.179   4.721 -0.8849  0.0482 -1.3103
  922SOL     OW 2584   0.621   2.776   0.814 -0.8264  0.0563 -0.6636
  922SOL    HW1 2585   0.586   2.818   0.898 -0.3972 -0.3109 -0.2945
  922SOL    HW2 2586   0.568   2.694   0.793  1.3204 -2.0350  1.3508
  923SOL     OW 2587   0.273   2.176   0.580 -0.1030  0.2351  0.2416
  923SOL    HW1 2588   0.277   2.238   0.502  1.6146  1.5927  1.3436
  923SOL    HW2 2589   0.227   2.221   0.656 -3.0057 -1.5556 -0.2860
  924SOL     OW 2590   1.755   3.235   2.863  0.1393 -0.1940 -0.0438
  924SOL    HW1 2591   1.676   3.248   2.803 -0.5655 -0.4185  0.8081
  924SOL    HW2 2592   1.729   3.176   2.940  0.9003  0.4300  0.7115
  925SOL     OW 2593   1.367   1.814   3.215  0.1652  0.0319 -0.0222
  925SOL    HW1 2594   1.275   1.842   3.244 -0.5664 -0.0090 -2.1754
  925SOL    HW2 2595   1.360   1.749   3.140  1.9756  0.4456 -0.5886
  926SOL     OW 2596   4.667   2.151   2.472 -0.9897 -0.2799 -0.8009
  926SOL    HW1 2597   4.747   2.092   2.463 -1.4043 -1.1595  0.8672
  926SOL    HW2 2598   4.696   2.246   2.473  0.3384 -0.6280  1.8632
  927SOL     OW 2599   4.489   2.859   2.750 -0.4674 -0.1029  0.4051
  927SOL    HW1 2600   4.546   2.848   2.831  0.4544 -0.0690 -0.2269
  927SOL    HW2 2601   4.400   2.815   2.765 -0.0854 -0.6100  1.2051
  928SOL     OW 2602   1.125   2.374   1.240 -0.1016 -0.2320 -0.4040
  928SOL    HW1 2603   1.189   2.375   1.317 -1.6745 -1.8631  0.9794
  928SOL    HW2 2604   1.139   2.457   1.186  1.7841  0.4461  0.9841
  929SOL     OW 2605   0.185   3.075   3.216  0.4213  0.2841 -0.0836
  929SOL    HW1 2606   0.115   3.106   3.281 -1.8234 -1.5964 -1.4628
  929SOL    HW2 2607   0.225   2.990   3.249  0.3261  0.0978 -0.4431
  930SOL     OW 2608   4.650   4.104   3.230  0.0143 -0.2048 -0.3316
  930SOL    HW1 2609   4.557   4.078   3.202 -0.1135 -0.0129 -0.0916
  930SOL    HW2 2610   4.702   4.022   3.254 -0.1072 -0.3098 -0.4295
  931SOL     OW 2611   2.151   3.443   3.947  0.2575  0.0293 -0.2968
  931SOL    HW1 2612   2.168   3.376   4.019 -1.0195 -0.0641 -0.0552
  931SOL    HW2 2613   2.132   3.532   3.988 -0.9807 -0.1349 -0.4584
  932SOL     OW 2614   1.483   2.894   4.267  0.3186 -0.2911 -0.4318
  932SOL    HW1 2615   1.478   2.859   4.361 -0.3611 -0.6635 -0.6025
  932SOL    HW2 2616   1.445   2.826   4.204  1.8246 -0.5403 -1.1185
  933SOL     OW 2617   0.954   3.734   2.638 -0.3038  0.2682 -0.5218
  933SOL    HW1 2618   0.866   3.692   2.616 -0.6886  1.4927 -1.4290
  933SOL    HW2 2619   1.002   3.678   2.706 -1.6375 -0.5768 -0.2478
  934SOL     OW 2620   1.713   3.101   4.999 -0.2424 -0.5960  0.1830
  934SOL    HW1 2621   1.811   3.082   4.992 -0.3283 -1.0562  0.1886
  934SOL    HW2 2622   1.689   3.175   4.935 -0.0316 -1.0220 -0.4027
  935SOL     OW 2623   4.562   3.747   1.844 -0.2294 -0.1209 -0.3598
  935SOL    HW1 2624   4.654   3.708   1.850 -1.2909 -2.9803 -0.8291
  935SOL    HW2 2625   4.523   3.757   1.935 -0.1137 -0.6639 -0.2501
  936SOL     OW 2626   0.672   1.262   3.888  0.7472 -0.1208  0.5357
  936SOL    HW1 2627   0.603   1.266   3.816  1.4592 -0.1336 -0.1585
  936SOL    HW2 2628   0.762   1.250   3.847  1.1254 -0.4921  1.4497
  937SOL     OW 2629   3.906   3.525   4.817  0.0383  0.1181  0.5409
  937SOL    HW1 2630   3.968   3.598   4.846 -0.7723  0.9667  0.1744
  937SOL    HW2 2631   3.817   3.537   4.860 -0.4248 -0.0428 -0.3379
  938SOL     OW 2632   4.927   2.112   2.620 -0.2643 -0.2105 -0.0661
  938SOL    HW1 2633   4.932   2.179   2.695 -0.3841  1.4100 -1.4546
  938SOL    HW2 2634   4.926   2.019   2.659  0.8342  0.5263  1.8887
  939SOL     OW 2635   2.170   1.165   5.013  0.0945  0.0934 -0.0822
  939SOL    HW1 2636   2.071   1.153   5.027  0.2875 -2.1618 -0.1786
  939SOL    HW2 2637   2.202   1.245   5.064 -1.6054  0.2640  0.7891
  940SOL     OW 2638   0.092   3.773   1.677 -0.7114  0.0697  0.1863
  940SOL    HW1 2639   0.029   3.701   1.646 -1.1985  1.0621 -1.1943
  940SOL    HW2 2640   0.114   3.833   1.601  1.4514  0.1180  0.8029
  941SOL     OW 2641   1.129   3.498   2.550  0.1903 -0.1204 -0.0875
  941SOL    HW1 2642   1.106   3.445   2.632  0.7766  0.3347  0.3700
  941SOL    HW2 2643   1.044   3.521   2.501 -0.0970 -1.1877 -0.1168
  942SOL     OW 2644   3.935   0.313   2.091  0.1963  0.4653 -0.0581
  942SOL    HW1 2645   3.935   0.373   2.172  0.2333 -1.1500  1.2005
  942SOL    HW2 2646   3.858   0.250   2.097 -1.2339  1.8285 -2.5460
  943SOL     OW 2647   2.277   2.024   1.536  0.2232  0.0596  0.2429
  943SOL    HW1 2648   2.344   2.088   1.572  0.1516 -0.0181  0.5120
  943SOL    HW2 2649   2.322   1.959   1.475  1.1485 -2.4729  3.3760
  944SOL     OW 2650   1.708   3.993   1.772  0.1382  0.0891 -0.1695
  944SOL    HW1 2651   1.631   4.035   1.722  0.6268  1.9119  0.5081
  944SOL    HW2 2652   1.750   4.062   1.831  1.1821 -1.3556  0.8292
  945SOL     OW 2653   1.166   3.523   1.664  0.5704  0.2081 -0.2797
  945SOL    HW1 2654   1.226   3.579   1.608 -0.4330  2.0829  0.4430
  945SOL    HW2 2655   1.182   3.542   1.761 -0.7659  0.3340 -0.0632
  946SOL     OW 2656   2.926   2.810   3.821  0.4483  0.1616 -0.0258
  946SOL    HW1 2657   2.974   2.730   3.784  0.8843  0.1945  0.4587
  946SOL    HW2 2658   2.842   2.780   3.867  1.3960 -0.2222  1.5472
  947SOL     OW 2659   1.015   1.121   1.489 -0.1843 -0.0760  0.6329
  947SOL    HW1 2660   0.987   1.026   1.479  0.8684 -0.4556  1.0842
  947SOL    HW2 2661   0.956   1.166   1.556  0.4241 -0.9357  1.7962
  948SOL     OW 2662   1.020   4.108   2.763  0.1147 -0.1733 -0.2125
  948SOL    HW1 2663   1.093   4.150   2.817 -0.1966  1.3506 -0.9239
  948SOL    HW2 2664   0.934   4.112   2.815 -0.3991  2.1922 -1.1258
  949SOL     OW 2665   1.568   2.040   1.951 -0.0430 -0.2344  1.0299
  949SOL    HW1 2666   1.502   2.114   1.965 -0.1945 -0.0154 -0.6076
  949SOL    HW2 2667   1.641   2.046   2.019  0.1471  1.6586  0.7142
  950SOL     OW 2668   3.932   3.200   0.690  0.0990  1.2447  0.5452
  950SOL    HW1 2669   4.000   3.149   0.742 -0.8658  1.5949  2.2339
  950SOL    HW2 2670   3.881   3.138   0.631 -0.5464  0.3525  1.9999
  951SOL     OW 2671   0.028   1.430   2.432 -0.1250 -0.7871  0.2816
  951SOL    HW1 2672  -0.069   1.409   2.445 -0.5130 -0.3926 -1.7604
  951SOL    HW2 2673   0.077   1.346   2.409 -0.3220 -0.6982 -0.4816
  952SOL     OW 2674   1.187   3.233   2.980 -0.1308 -0.1931 -0.3214
  952SOL    HW1 2675   1.134   3.262   3.060  1.4004  0.0500  0.6521
  952SOL    HW2 2676   1.278   3.275   2.984  0.0917 -0.4638 -2.0210
  953SOL     OW 2677   3.180   4.936   1.873  0.4299  0.3929  1.0599
  953SOL    HW1 2678   3.119   4.885   1.934 -1.3897 -0.4157 -1.2797
  953SOL    HW2 2679   3.234   4.871   1.818 -3.0329  0.5833 -3.0885
  954SOL     OW 2680   1.655   3.045   0.962 -0.1644 -0.6073 -0.0422
  954SOL    HW1 2681   1.632   3.105   0.886  1.1782  0.5640  0.4338
  954SOL    HW2 2682   1.571   3.001   0.996 -1.1813  0.9020 -0.4814
  955SOL     OW 2683   1.357   2.027   1.284 -0.4045  0.3196  0.3625
  955SOL    HW1 2684   1.399   2.098   1.227  0.9141  0.1608  1.0884
  955SOL    HW2 2685   1.280   2.064   1.335 -0.0955  1.0694  0.2861
  956SOL     OW 2686   1.111   2.970   3.242  0.5191 -0.4135 -0.2396
  956SOL    HW1 2687   1.057   3.052   3.267 -2.0249 -2.3673  1.2339
  956SOL    HW2 2688   1.180   2.954   3.312  1.4327  0.7669 -0.8447
  957SOL     OW 2689   4.710   2.185   1.885  0.5399 -0.0723  0.0388
  957SOL    HW1 2690   4.732   2.199   1.982 -1.2866 -0.3347  0.5229
  957SOL    HW2 2691   4.795   2.177   1.833  1.6070 -2.2641  1.9359
  958SOL     OW 2692   2.467   1.693   2.527  0.2152  0.2007  0.2378
  958SOL    HW1 2693   2.463   1.606   2.479  2.1584 -0.3035  0.8830
  958SOL    HW2 2694   2.400   1.695   2.601  0.1102 -0.7324  0.1724
  959SOL     OW 2695   1.131   2.545   3.755  0.1370  0.5898 -0.1745
  959SOL    HW1 2696   1.128   2.445   3.761  0.8025  0.4975 -1.1465
  959SOL    HW2 2697   1.085   2.576   3.672 -0.1698  1.1009  0.1811
  960SOL     OW 2698   0.625   3.202   2.348 -0.0238 -0.5808 -0.0546
  960SOL    HW1 2699   0.541   3.255   2.342  0.8055  0.7839 -0.2649
  960SOL    HW2 2700   0.692   3.251   2.404  0.2777 -2.1587  1.0254
  961SOL     OW 2701   1.310   1.607   2.364  0.4245 -0.4865 -0.1338
  961SOL    HW1 2702   1.283   1.620   2.269 -1.5783  0.8145  0.5347
  961SOL    HW2 2703   1.383   1.670   2.388 -0.9954  1.2005 -0.1021
  962SOL     OW 2704   4.967   3.181   2.769 -0.2469  0.4664 -0.6956
  962SOL    HW1 2705   5.002   3.206   2.860 -0.1347  0.8349 -0.8400
  962SOL    HW2 2706   5.031   3.212   2.699 -0.1729 -0.1094 -0.8873
  963SOL     OW 2707   0.884   3.983   3.413 -0.0378  0.0310  0.4714
  963SOL    HW1 2708   0.970   3.933   3.412  0.5754  1.0331  1.4165
  963SOL    HW2 2709   0.858   4.003   3.507 -0.5938  0.9375  0.1384
  964SOL     OW 2710   0.714   1.840   0.303  0.0187  0.4533  0.0529
  964SOL    HW1 2711   0.709   1.766   0.236  0.9463  1.8222 -1.5905
  964SOL    HW2 2712   0.634   1.898   0.295 -0.1779  0.2735  0.6057
  965SOL     OW 2713   0.444   2.975   3.840 -0.0616  0.3572 -0.3380
  965SOL    HW1 2714   0.500   2.897   3.811 -0.1275  0.4114 -0.6121
  965SOL    HW2 2715   0.380   2.945   3.910 -0.1616  0.1379 -0.5212
  966SOL     OW 2716   1.741   3.417   1.507 -0.0101  0.7074  0.1036
  966SOL    HW1 2717   1.666   3.371   1.460 -0.9774  1.5626  0.7885
  966SOL    HW2 2718   1.747   3.383   1.601  1.0636 -0.0222 -0.2065
  967SOL     OW 2719   4.958   0.758   3.364 -0.5991 -0.3146  0.1805
  967SOL    HW1 2720   4.995   0.685   3.421 -0.5693 -1.1764 -0.8973
  967SOL    HW2 2721   4.903   0.820   3.419  1.4239  0.3154  1.6225
  968SOL     OW 2722   1.309   2.885   0.923  0.1710  0.0946 -0.2337
  968SOL    HW1 2723   1.274   2.792   0.934  0.7852  0.0645  1.8143
  968SOL    HW2 2724   1.234   2.950   0.929 -0.0601 -0.1873 -0.0367
  969SOL     OW 2725   3.952   3.931   2.328  0.1674  0.2645  0.0786
  969SOL    HW1 2726   4.051   3.915   2.335  0.2297 -0.4187 -1.8682
  969SOL    HW2 2727   3.913   3.866   2.263 -1.7722 -0.1923  1.6098
  970SOL     OW 2728   0.767   4.935   4.629 -0.0479  0.1228 -0.1243
  970SOL    HW1 2729   0.714   4.997   4.572 -0.5027  0.5549  0.7604
  970SOL    HW2 2730   0.815   4.869   4.570  0.2446  1.1373 -1.0543
  971SOL     OW 2731   0.559   3.184   1.267  0.1444  0.0211 -1.2111
  971SOL    HW1 2732   0.522   3.239   1.192 -0.9663 -0.9857 -1.4507
  971SOL    HW2 2733   0.633   3.126   1.233  1.6461  1.6752 -0.8492
  972SOL     OW 2734   0.479   1.593   3.912  0.3161 -0.2942  0.5038
  972SOL    HW1 2735   0.488   1.690   3.889  0.8287 -0.9847 -2.6931
  972SOL    HW2 2736   0.439   1.543   3.835 -0.4979 -2.5739  2.2698
  973SOL     OW 2737   3.247   3.403   2.665 -0.3267  0.8187  0.5617
  973SOL    HW1 2738   3.290   3.415   2.754  0.4273  0.7691  0.2118
  973SOL    HW2 2739   3.157   3.361   2.677  0.1462 -0.0297  1.2314
  974SOL     OW 2740   0.541   1.202   3.113  0.2599 -0.2158 -0.3810
  974SOL    HW1 2741   0.507   1.165   3.200 -1.3579  2.1938  0.1049
  974SOL    HW2 2742   0.613   1.269   3.131  1.9742 -1.7550 -1.1496
  975SOL     OW 2743   0.480   2.519   1.586 -0.3180  0.2791 -0.9080
  975SOL    HW1 2744   0.450   2.552   1.675 -0.6224  2.1528 -1.6679
  975SOL    HW2 2745   0.567   2.563   1.561  2.1290 -3.4028  0.2799
  976SOL     OW 2746   0.501   2.642   2.141  0.1377 -0.2444  0.3504
  976SOL    HW1 2747   0.520   2.587   2.222  1.1867 -0.3322  0.0544
  976SOL    HW2 2748   0.552   2.728   2.146  0.7252 -0.5298 -0.5071
  977SOL     OW 2749   1.633   1.056   2.330  0.6577  0.1465  0.7210
  977SOL    HW1 2750   1.701   1.047   2.402  0.6033  0.6979  0.8431
  977SOL    HW2 2751   1.613   1.153   2.315  1.3999  0.0994 -0.7217
  978SOL     OW 2752   1.090   3.506   3.437  0.2188  0.1300  0.2674
  978SOL    HW1 2753   1.047   3.428   3.481 -0.4554  1.6287  2.4322
  978SOL    HW2 2754   1.163   3.542   3.495  0.5646  1.0869 -0.7093
  979SOL     OW 2755   1.613   2.704   1.562 -0.0178  0.1191  0.5710
  979SOL    HW1 2756   1.638   2.786   1.613  0.2405 -0.2253  0.9997
  979SOL    HW2 2757   1.660   2.705   1.473 -0.9819  1.0424  0.0504
  980SOL     OW 2758   0.848   3.174   2.150  0.3813 -0.1640 -0.2580
  980SOL    HW1 2759   0.904   3.196   2.230 -0.5480 -1.7735  0.8828
  980SOL    HW2 2760   0.751   3.186   2.173  0.0102 -2.2398 -0.5698
  981SOL     OW 2761   1.054   1.092   4.083 -0.4001  0.3974  0.0404
  981SOL    HW1 2762   1.055   1.135   3.993 -0.3063 -0.8926 -0.5956
  981SOL    HW2 2763   1.091   1.155   4.151 -0.2347  1.2907 -0.8631
  982SOL     OW 2764   4.924   1.507   2.000  0.1204  1.0939 -0.6131
  982SOL    HW1 2765   4.989   1.572   2.039 -0.7243  1.5528  0.0574
  982SOL    HW2 2766   4.831   1.543   2.008 -0.4249 -0.4291  0.3020
  983SOL     OW 2767   1.448   2.250   2.556 -0.3288 -0.2400 -0.4101
  983SOL    HW1 2768   1.505   2.175   2.591  0.7838  0.8971  0.3294
  983SOL    HW2 2769   1.372   2.212   2.504  0.4251 -1.8648 -0.4139
  984SOL     OW 2770   1.984   2.971   1.746 -0.2299 -0.0761  0.5849
  984SOL    HW1 2771   1.976   3.007   1.653  2.2104  2.2422  1.1386
  984SOL    HW2 2772   2.057   2.903   1.749  0.0568  0.2438  0.8950
  985SOL     OW 2773   1.631   0.880   3.635 -0.1739 -0.0397 -0.0120
  985SOL    HW1 2774   1.602   0.962   3.684  1.3266  0.3099  0.3448
  985SOL    HW2 2775   1.551   0.827   3.609 -1.1384  1.1776  0.3703
  986SOL     OW 2776   0.243   2.114   3.346  0.0294  0.2438 -0.0892
  986SOL    HW1 2777   0.287   2.078   3.429  0.4342 -1.5366 -1.0430
  986SOL    HW2 2778   0.197   2.041   3.298  1.4448  0.8112 -2.4652
  987SOL     OW 2779   1.946   1.958   2.398  0.5153  0.0347 -0.3677
  987SOL    HW1 2780   1.931   1.888   2.328  3.3857 -0.5065 -0.5827
  987SOL    HW2 2781   1.888   2.037   2.380 -1.9684 -1.7825 -0.7869
  988SOL     OW 2782   1.095   2.581   3.483 -0.1742 -0.1933 -0.1053
  988SOL    HW1 2783   1.026   2.647   3.453 -0.0670 -0.9836 -2.2735
  988SOL    HW2 2784   1.069   2.489   3.452  1.5724 -0.5856 -0.5364
  989SOL     OW 2785   2.481   3.040   3.819 -0.7165  0.6431 -0.1044
  989SOL    HW1 2786   2.411   2.985   3.773  0.1346 -1.3809  0.8797
  989SOL    HW2 2787   2.482   3.132   3.781 -4.5744  1.0825  0.4894
  990SOL     OW 2788   0.154   2.386   4.221  0.6889  0.4877  0.0139
  990SOL    HW1 2789   0.209   2.463   4.256  1.7732 -0.1155 -0.2959
  990SOL    HW2 2790   0.147   2.315   4.291  1.7448 -0.1517 -0.4981
  991SOL     OW 2791   1.028   2.235   0.474  0.3680 -0.2624  0.2672
  991SOL    HW1 2792   0.977   2.154   0.501  1.6713 -0.4919  2.2540
  991SOL    HW2 2793   0.985   2.317   0.512  0.6418 -0.3121  0.6893
  992SOL     OW 2794   1.637   2.713   3.976 -0.3947 -0.4398  0.2299
  992SOL    HW1 2795   1.679   2.792   3.932 -2.5990  1.1256  0.7502
  992SOL    HW2 2796   1.625   2.640   3.909  0.3935  0.1875 -0.6235
  993SOL     OW 2797   1.654   4.897   2.455  0.2393 -0.2177  0.2346
  993SOL    HW1 2798   1.733   4.894   2.394 -0.6070 -0.8320 -0.8723
  993SOL    HW2 2799   1.633   4.805   2.487  0.5587  0.0719  1.3413
  994SOL     OW 2800   4.778   4.146   2.600 -0.6077 -0.3172 -0.1279
  994SOL    HW1 2801   4.856   4.177   2.545 -0.6028  1.6469  0.8861
  994SOL    HW2 2802   4.808   4.072   2.661  0.4904  0.3947  0.2383
  995SOL     OW 2803   2.766   1.258   3.362 -0.0234  0.2355 -0.0573
  995SOL    HW1 2804   2.782   1.353   3.335  1.0057  0.9711  2.7798
  995SOL    HW2 2805   2.679   1.227   3.324 -0.5342  2.3971 -0.8132
  996SOL     OW 2806   4.738   2.778   1.097 -0.3455  0.1345 -0.1474
  996SOL    HW1 2807   4.740   2.871   1.060 -2.4885  0.1598 -0.3523
  996SOL    HW2 2808   4.744   2.712   1.022 -4.2889  0.1865 -0.7380
  997SOL     OW 2809   0.309   3.543   2.058 -0.2313 -0.1281  0.1206
  997SOL    HW1 2810   0.281   3.454   2.020  1.3023  0.0857 -1.6774
  997SOL    HW2 2811   0.258   3.616   2.013  0.7626  0.0573 -0.7543
  998SOL     OW 2812   0.054   0.837   2.506 -0.0049 -0.0242  0.0560
  998SOL    HW1 2813   0.073   0.930   2.538 -0.2122  0.0099  0.0783
  998SOL    HW2 2814  -0.009   0.792   2.569  0.8173 -0.5026  0.5589
  999SOL     OW 2815   4.156   3.418   2.219  0.8826 -0.0096 -0.2563
  999SOL    HW1 2816   4.218   3.370   2.280  1.7805  0.5938 -0.6831
  999SOL    HW2 2817   4.139   3.362   2.138  0.2135 -0.5222  0.2225
 1000SOL     OW 2818   1.269   1.457   3.015  0.3245  0.0219  0.6527
 1000SOL    HW1 2819   1.295   1.552   2.998 -2.6749  0.7204 -0.6633
 1000SOL    HW2 2820   1.348   1.398   3.000  2.8361  2.3577  3.4227
 1001SOL     OW 2821   1.381   2.942   2.582  0.2637 -0.2808 -0.2729
 1001SOL    HW1 2822   1.430   3.011   2.530  1.9277 -0.9941  0.2815
 1001SOL    HW2 2823   1.287   2.935   2.547 -0.8522  3.9830  1.2703
 1002SOL     OW 2824   1.259   3.025   1.907  0.1325 -0.1043  0.4213
 1002SOL    HW1 2825   1.338   2.972   1.938  0.4932  0.1078 -0.1247
 1002SOL    HW2 2826   1.248   3.105   1.966  1.0380  0.4942 -0.1848
 1003SOL     OW 2827   2.936   2.411   1.215  0.2859  0.5375 -0.2076
 1003SOL    HW1 2828   2.982   2.386   1.129  1.9322  2.4846  0.0121
 1003SOL    HW2 2829   3.002   2.455   1.276 -1.7900  3.2395  0.2617
 1004SOL     OW 2830   3.039   1.699   2.156  0.0913 -0.0357 -0.0957
 1004SOL    HW1 2831   3.094   1.751   2.091 -0.4424  0.9855  0.2518
 1004SOL    HW2 2832   2.950   1.677   2.116 -1.0039  2.2545  0.8837
 1005SOL     OW 2833   2.403   4.046   3.516  0.0688 -0.1339 -0.3426
 1005SOL    HW1 2834   2.477   4.110   3.498 -1.2825  1.6504  0.2394
 1005SOL    HW2 2835   2.355   4.072   3.600 -1.6804 -0.8007 -1.0838
 1006SOL     OW 2836   0.908   2.361   2.726  0.0866  0.0315  0.1431
 1006SOL    HW1 2837   0.942   2.424   2.657  1.3147  0.1486  0.8258
 1006SOL    HW2 2838   0.967   2.365   2.807  0.6623 -2.5245 -0.0628
 1007SOL     OW 2839   2.357   3.341   2.785  0.0084 -0.1615  0.4021
 1007SOL    HW1 2840   2.442   3.293   2.763 -0.1233  0.1401 -0.8737
 1007SOL    HW2 2841   2.378   3.423   2.838  0.3624 -0.8890  1.4034
 1008SOL     OW 2842   0.715   3.491   1.491 -0.0031  0.4407  0.5715
 1008SOL    HW1 2843   0.717   3.527   1.398  0.1241 -1.7902 -0.3348
 1008SOL    HW2 2844   0.623   3.503   1.529 -0.6694 -0.5030 -0.6528
 1009SOL     OW 2845   1.496   3.152   2.453 -0.7843 -0.3556 -0.4024
 1009SOL    HW1 2846   1.433   3.226   2.430  0.1266  0.0033 -1.8349
 1009SOL    HW2 2847   1.581   3.164   2.403 -0.0559 -1.5641  0.4976
 1010SOL     OW 2848   1.918   2.035   3.162 -0.2975 -0.1536  0.1152
 1010SOL    HW1 2849   2.001   2.090   3.157 -0.4355  0.0429 -0.0642
 1010SOL    HW2 2850   1.934   1.955   3.218  1.0454 -1.9204 -2.5878
 1011SOL     OW 2851   2.081   1.524   3.484 -0.4050  0.1152 -0.0006
 1011SOL    HW1 2852   2.070   1.469   3.400  1.1825  0.2437 -0.3118
 1011SOL    HW2 2853   2.092   1.463   3.562  2.3739 -0.1251 -0.4738
 1012SOL     OW 2854   4.436   3.598   3.320  0.4504  0.8330 -0.3503
 1012SOL    HW1 2855   4.383   3.568   3.241  1.2218  0.1909 -0.6436
 1012SOL    HW2 2856   4.414   3.540   3.399  0.0904  1.1149 -0.2437
 1013SOL     OW 2857   1.129   2.398   2.933  0.1496 -0.7258 -0.5689
 1013SOL    HW1 2858   1.201   2.465   2.952  1.6831 -1.9759 -1.6977
 1013SOL    HW2 2859   1.152   2.311   2.975 -0.8128 -1.1069 -0.7965
 1014SOL     OW 2860   0.440   0.679   1.110  0.2287  0.0643 -1.0002
 1014SOL    HW1 2861   0.495   0.647   1.188 -0.1575 -1.0702 -1.1801
 1014SOL    HW2 2862   0.501   0.721   1.042  0.6347  0.5528 -0.3463
 1015SOL     OW 2863   0.412   2.452   3.904  0.3139  0.1549  1.0169
 1015SOL    HW1 2864   0.421   2.365   3.952 -0.0388 -0.0188  0.7724
 1015SOL    HW2 2865   0.493   2.508   3.921  0.8284 -0.4756  0.6688
 1016SOL     OW 2866   0.457   4.326   1.911 -0.0208 -1.1829 -0.3805
 1016SOL    HW1 2867   0.538   4.268   1.920  1.2522  0.7008  1.3561
 1016SOL    HW2 2868   0.476   4.400   1.847  0.0346 -0.1760  0.7635
 1017SOL     OW 2869   3.877   2.460   3.551  0.0246 -0.4229 -0.0513
 1017SOL    HW1 2870   3.816   2.383   3.571 -0.4765 -0.3172 -1.0955
 1017SOL    HW2 2871   3.822   2.539   3.522  0.5679  0.1706  0.5047
 1018SOL     OW 2872   4.035   2.468   3.294  0.3197  0.0288  0.0971
 1018SOL    HW1 2873   3.964   2.398   3.294  0.4278 -0.1071 -1.1933
 1018SOL    HW2 2874   3.994   2.558   3.281  0.3119  0.0369  0.1790
 1019SOL     OW 2875   1.667   3.818   3.219  0.8950  0.5706 -0.4572
 1019SOL    HW1 2876   1.711   3.730   3.232 -0.2910  0.0149 -0.0398
 1019SOL    HW2 2877   1.602   3.812   3.143 -1.2656  0.2375  1.3369
 1020SOL     OW 2878   1.701   2.712   2.303 -0.3456  0.1597 -0.3987
 1020SOL    HW1 2879   1.647   2.727   2.386  2.0547  0.5838  1.1722
 1020SOL    HW2 2880   1.644   2.732   2.223 -2.8441 -0.5980  1.0683
 1021SOL     OW 2881   4.848   2.484   2.813  0.1922  0.0907  0.2593
 1021SOL    HW1 2882   4.807   2.400   2.850  0.8304 -1.4219 -2.2061
 1021SOL    HW2 2883   4.929   2.460   2.758 -0.1446  2.2227 -1.2893
 1022SOL     OW 2884   1.114   1.690   4.230  0.3315  0.0569 -0.1749
 1022SOL    HW1 2885   1.203   1.685   4.276  0.3080  1.3132  0.0296
 1022SOL    HW2 2886   1.062   1.606   4.249  1.6580 -0.9326 -0.7163
 1023SOL     OW 2887   1.875   3.421   4.303 -0.0131 -0.7735  0.2994
 1023SOL    HW1 2888   1.902   3.424   4.399  0.5900 -1.3148  0.1525
 1023SOL    HW2 2889   1.821   3.503   4.281 -2.0732 -1.6868  1.6488
 1024SOL     OW 2890   5.000   1.348   4.410  0.2475  0.3065  0.8680
 1024SOL    HW1 2891   4.903   1.324   4.406  0.4485 -0.3454 -1.5936
 1024SOL    HW2 2892   5.046   1.291   4.478 -0.8379 -0.3714  1.0600
 1025SOL     OW 2893   1.749   2.167   2.415 -0.2000 -0.4678 -0.3926
 1025SOL    HW1 2894   1.752   2.267   2.409  1.8412 -0.4740 -0.2606
 1025SOL    HW2 2895   1.659   2.138   2.446 -0.3386  1.4492  1.1846
 1026SOL     OW 2896   0.024   2.764   2.680  0.5895  0.1123  0.1927
 1026SOL    HW1 2897   0.096   2.695   2.670 -0.6605 -1.1014 -0.8205
 1026SOL    HW2 2898  -0.033   2.742   2.759  0.9977  0.7859  0.6883
 1027SOL     OW 2899   2.993   1.980   1.829  0.2628  0.0028 -0.1870
 1027SOL    HW1 2900   2.965   2.074   1.806  0.9730  0.4372  0.6504
 1027SOL    HW2 2901   2.913   1.927   1.857  0.1156  0.9961  1.4119
 1028SOL     OW 2902   1.002   1.037   2.570  0.7151 -0.4475 -0.1481
 1028SOL    HW1 2903   0.916   1.036   2.621 -0.0736 -0.3337 -1.4322
 1028SOL    HW2 2904   1.021   0.945   2.535 -0.8070  0.1969 -2.9139
 1029SOL     OW 2905   4.154   2.978   1.877 -0.0483 -0.6222  0.0219
 1029SOL    HW1 2906   4.142   3.035   1.959 -0.7753  1.1333 -1.2258
 1029SOL    HW2 2907   4.247   2.989   1.843 -0.7373  1.6310 -1.3900
 1030SOL     OW 2908   0.891   2.432   1.385 -0.1315  0.5474  0.5179
 1030SOL    HW1 2909   0.970   2.472   1.338  0.2514  0.2831  0.9297
 1030SOL    HW2 2910   0.859   2.352   1.334 -0.9431  1.4019 -0.3482
 1031SOL     OW 2911   0.846   2.196   2.962  0.2628  0.2283 -0.7024
 1031SOL    HW1 2912   0.821   2.226   2.870 -2.1021 -1.4852 -0.7054
 1031SOL    HW2 2913   0.821   2.100   2.973 -0.2567  0.6185  2.0093
 1032SOL     OW 2914   0.577   1.943   2.169 -0.8625  0.0796 -0.6087
 1032SOL    HW1 2915   0.526   1.988   2.243 -0.7934 -1.0145  0.1244
 1032SOL    HW2 2916   0.647   1.884   2.209  0.4505  0.9238 -1.5892
 1033SOL     OW 2917   3.108   1.367   1.960  0.1637 -0.3009 -0.1590
 1033SOL    HW1 2918   3.155   1.419   2.031  1.4682 -0.8791 -0.5756
 1033SOL    HW2 2919   3.010   1.388   1.963  0.4895  1.2529  0.4497
 1034SOL     OW 2920   3.492   2.781   3.598 -0.1983 -0.3793  0.1973
 1034SOL    HW1 2921   3.470   2.870   3.557  0.4622 -0.1562  0.3200
 1034SOL    HW2 2922   3.590   2.777   3.618  0.0353 -1.6452 -1.0707
 1035SOL     OW 2923   4.180   2.976   3.345 -0.1241  0.2660 -0.5524
 1035SOL    HW1 2924   4.187   2.936   3.254 -0.7000 -2.2071  0.4332
 1035SOL    HW2 2925   4.271   2.997   3.380  0.4123 -2.3608 -0.2253
 1036SOL     OW 2926   2.602   3.493   3.401 -0.0474  0.2585 -0.6616
 1036SOL    HW1 2927   2.684   3.439   3.417 -1.1295 -1.5914 -1.1152
 1036SOL    HW2 2928   2.530   3.464   3.464 -1.0185  0.3283 -1.7014
 1037SOL     OW 2929   0.192   2.433   2.314  0.0913  0.6202 -0.3575
 1037SOL    HW1 2930   0.215   2.338   2.335  0.1318  0.5611 -0.6663
 1037SOL    HW2 2931   0.093   2.442   2.304 -0.1205  1.0152  1.6852
 1038SOL     OW 2932   2.401   1.356   2.886  0.0098 -0.5779 -0.0974
 1038SOL    HW1 2933   2.453   1.276   2.917 -1.3080 -1.1212  0.8124
 1038SOL    HW2 2934   2.370   1.408   2.965 -1.5776 -0.7739 -0.5504
 1039SOL     OW 2935   1.080   2.665   1.419 -0.2565  0.2662  0.4004
 1039SOL    HW1 2936   1.036   2.624   1.499  0.3730  0.6685  0.9716
 1039SOL    HW2 2937   1.174   2.690   1.442  0.4425 -1.0003 -0.9247
 1040SOL     OW 2938   1.964   4.740   1.890 -0.1442 -0.2112  0.3517
 1040SOL    HW1 2939   1.898   4.809   1.859  0.5320  0.4922  0.4302
 1040SOL    HW2 2940   2.003   4.694   1.810  1.6664  1.6634  0.0570
 1041SOL     OW 2941   0.497   3.036   1.901 -0.7802 -0.2492  0.0525
 1041SOL    HW1 2942   0.584   2.994   1.877 -0.0797  1.0157  0.2858
 1041SOL    HW2 2943   0.479   3.114   1.841 -0.6898  0.8196  1.3532
 1042SOL     OW 2944   1.257   2.872   3.440 -0.0739 -0.3761 -0.9597
 1042SOL    HW1 2945   1.205   2.787   3.444  0.1324 -0.5200 -1.2881
 1042SOL    HW2 2946   1.355   2.851   3.429  0.2555 -0.1516  1.1410
 1043SOL     OW 2947   1.860   3.388   2.637 -0.5337  0.0179 -0.3121
 1043SOL    HW1 2948   1.958   3.376   2.626 -0.2766  1.0027  0.6573
 1043SOL    HW2 2949   1.827   3.333   2.713 -0.9600 -1.1727 -1.3250
 1044SOL     OW 2950   2.800   2.467   3.297  0.0419  0.3704 -0.6729
 1044SOL    HW1 2951   2.858   2.392   3.265 -0.9855 -0.5399 -0.4626
 1044SOL    HW2 2952   2.717   2.471   3.241 -0.8968 -0.0274  0.6476
 1045SOL     OW 2953   4.691   0.479   1.630  0.0641 -0.7794  0.3536
 1045SOL    HW1 2954   4.633   0.525   1.563  1.7784 -0.9123 -1.3148
 1045SOL    HW2 2955   4.785   0.473   1.594  0.7789 -1.9413  2.2712
 1046SOL     OW 2956   0.156   4.279   2.677  0.1184 -0.3902 -0.3873
 1046SOL    HW1 2957   0.097   4.207   2.643  0.7152 -1.4788  0.8231
 1046SOL    HW2 2958   0.118   4.368   2.651 -1.4762 -1.0820 -0.5361
 1047SOL     OW 2959   1.201   2.856   1.691 -0.6990 -0.6590  0.3327
 1047SOL    HW1 2960   1.107   2.847   1.658 -0.6795  0.5921 -0.0998
 1047SOL    HW2 2961   1.202   2.909   1.776 -0.3531 -0.3483  0.1351
 1048SOL     OW 2962   1.335   2.733   1.478  0.0399 -0.2522 -1.0217
 1048SOL    HW1 2963   1.311   2.780   1.562 -3.0360 -2.4488 -0.5083
 1048SOL    HW2 2964   1.433   2.717   1.476  0.1904 -0.4463  2.3308
 1049SOL     OW 2965   4.961   2.225   3.245 -0.3748  0.3164 -0.3274
 1049SOL    HW1 2966   4.910   2.310   3.234 -2.6370 -0.7665  0.9876
 1049SOL    HW2 2967   4.949   2.190   3.338  1.0984 -1.0837 -0.6060
 1050SOL     OW 2968   0.313   2.520   3.200  0.2011  0.4479  0.4264
 1050SOL    HW1 2969   0.365   2.440   3.169 -0.8557  1.0760 -3.5442
 1050SOL    HW2 2970   0.237   2.489   3.258  0.9095 -1.2051  0.5451
 1051SOL     OW 2971   0.868   2.907   2.091 -0.1298  0.0749 -0.0443
 1051SOL    HW1 2972   0.954   2.867   2.060 -0.3232 -0.1180 -0.3304
 1051SOL    HW2 2973   0.881   3.004   2.110 -0.9947  1.4483 -5.1109
 1052SOL     OW 2974   1.084   1.174   1.020 -0.4013  0.2271 -0.6897
 1052SOL    HW1 2975   0.986   1.161   1.007 -0.1801 -1.4538 -1.0145
 1052SOL    HW2 2976   1.133   1.094   0.985  0.9050 -0.2784  2.0159
 1053SOL     OW 2977   1.175   1.440   3.319  0.3533  0.2569  0.0442
 1053SOL    HW1 2978   1.162   1.366   3.253  0.3798 -1.3331  1.7465
 1053SOL    HW2 2979   1.265   1.431   3.363 -0.7014 -0.3903  2.2176
 1054SOL     OW 2980   1.569   1.321   2.289 -0.4536 -0.2412  0.4976
 1054SOL    HW1 2981   1.614   1.345   2.375 -2.0200  0.9909  1.0169
 1054SOL    HW2 2982   1.538   1.404   2.244 -1.5604 -1.0124 -0.1891
 1055SOL     OW 2983   0.646   1.625   1.841 -0.2512 -0.6359 -0.0575
 1055SOL    HW1 2984   0.575   1.569   1.885 -1.0706  0.7082  0.3767
 1055SOL    HW2 2985   0.604   1.688   1.777  0.7116 -0.8026 -0.8732
 1056SOL     OW 2986   2.743   4.061   3.004 -0.2328  0.2359  0.3849
 1056SOL    HW1 2987   2.693   4.116   2.937  0.0051 -0.7741 -0.6606
 1056SOL    HW2 2988   2.825   4.023   2.961 -0.2038 -0.6232  1.1791
 1057SOL     OW 2989   0.386   2.258   1.329  0.0905  0.1739 -0.8247
 1057SOL    HW1 2990   0.357   2.259   1.233 -0.0877  2.0253 -0.7901
 1057SOL    HW2 2991   0.384   2.351   1.365  1.5522 -0.2883  0.5675
 1058SOL     OW 2992   4.836   3.517   3.221 -0.0860  0.1672 -0.3094
 1058SOL    HW1 2993   4.833   3.480   3.314 -0.6323  0.2859 -0.2785
 1058SOL    HW2 2994   4.931   3.533   3.195  0.0264  1.5866  0.8218
 1059SOL     OW 2995   1.432   1.154   2.607  0.5398 -0.5263  0.0722
 1059SOL    HW1 2996   1.526   1.149   2.639  0.5422  0.8017  0.3039
 1059SOL    HW2 2997   1.395   1.245   2.624 -0.3334 -0.6016 -1.2682
 1060SOL     OW 2998   2.625   3.032   4.349 -0.0144 -0.7967  0.3164
 1060SOL    HW1 2999   2.592   3.040   4.254 -1.4333 -1.3464  0.7432
 1060SOL    HW2 3000   2.681   2.950   4.358 -0.2839 -1.0129  0.0624
 1061SOL     OW 3001   3.314   2.817   3.132 -0.6501 -0.5690 -0.1344
 1061SOL    HW1 3002   3.234   2.862   3.092 -0.4437  0.9048  1.0222
 1061SOL    HW2 3003   3.350   2.749   3.068 -1.5631  0.2338 -1.5423
 1062SOL     OW 3004   4.313   2.972   2.207 -1.1324 -0.3592  0.1006
 1062SOL    HW1 3005   4.226   2.936   2.240 -1.6065 -0.4487 -1.1784
 1062SOL    HW2 3006   4.305   3.070   2.189 -0.2228  0.1730  2.3242
 1063SOL     OW 3007   4.622   3.094   3.081  0.5936 -0.5696 -0.5447
 1063SOL    HW1 3008   4.682   3.130   3.153 -0.3738 -0.4062  0.2052
 1063SOL    HW2 3009   4.623   2.994   3.084 -1.3367 -0.6014  1.3853
 1064SOL     OW 3010   0.766   4.920   2.294 -0.1372 -0.8187  0.0511
 1064SOL    HW1 3011   0.821   4.871   2.362  1.9600 -1.8549 -2.2613
 1064SOL    HW2 3012   0.817   4.997   2.259 -1.4957  0.1510  0.1071
 1065SOL     OW 3013   1.080   2.651   1.151  0.5264  0.2236 -0.9401
 1065SOL    HW1 3014   1.020   2.728   1.132  0.1523  0.2449  0.2704
 1065SOL    HW2 3015   1.082   2.633   1.250  2.1427 -0.0716 -0.9980
 1066SOL     OW 3016   3.524   3.804   4.286  0.0952  0.2650  0.1593
 1066SOL    HW1 3017   3.604   3.835   4.337  0.9024 -1.1129 -0.2045
 1066SOL    HW2 3018   3.547   3.796   4.189 -0.7014  0.5307 -0.0596
 1067SOL     OW 3019   0.845   2.860   1.404  0.1483 -0.5827 -0.1679
 1067SOL    HW1 3020   0.795   2.947   1.407 -0.4361 -0.9282  1.1797
 1067SOL    HW2 3021   0.917   2.865   1.335 -0.7842  0.4651 -1.1078
 1068SOL     OW 3022   4.986   3.882   2.032 -0.2744 -0.5097  0.2452
 1068SOL    HW1 3023   5.036   3.947   2.090 -1.7296 -0.6636  1.7391
 1068SOL    HW2 3024   4.900   3.924   2.002  0.0589 -0.7598 -1.1352
 1069SOL     OW 3025   1.706   3.513   2.178 -0.2029  0.3764 -0.1835
 1069SOL    HW1 3026   1.687   3.466   2.264 -0.5439 -0.7668 -0.8537
 1069SOL    HW2 3027   1.747   3.448   2.113 -0.4598  1.0717 -1.0593
 1070SOL     OW 3028   0.817   1.510   2.300 -0.8435  0.0562  0.1927
 1070SOL    HW1 3029   0.861   1.422   2.318  0.0578  0.2820 -0.7770
 1070SOL    HW2 3030   0.816   1.527   2.202  1.2972  2.2418  0.4673
 1071SOL     OW 3031   0.436   2.054   2.357 -0.4197 -0.2047  0.2371
 1071SOL    HW1 3032   0.444   2.067   2.455 -0.3620 -2.3760  0.5658
 1071SOL    HW2 3033   0.362   1.990   2.338 -1.2579  1.1092 -1.2502
 1072SOL     OW 3034   2.009   3.099   1.063  0.5809 -0.5380 -0.3787
 1072SOL    HW1 3035   1.997   3.015   1.009  0.9706 -0.5670 -0.4202
 1072SOL    HW2 3036   2.089   3.089   1.123  0.5891 -0.2200 -0.3374
 1073SOL     OW 3037   4.777   1.786   2.755 -0.2461 -0.1587 -0.4365
 1073SOL    HW1 3038   4.721   1.865   2.781  0.4097  0.6948 -1.5320
 1073SOL    HW2 3039   4.824   1.751   2.836 -1.8027 -0.4782  0.3789
 1074SOL     OW 3040   0.153   2.172   2.473  0.0481 -0.8424 -0.5952
 1074SOL    HW1 3041   0.155   2.109   2.395 -1.1683 -1.5049 -0.1099
 1074SOL    HW2 3042   0.060   2.182   2.506  0.5671 -0.6807  0.8811
 1075SOL     OW 3043   1.495   4.327   4.334  0.0717 -0.5272 -0.0733
 1075SOL    HW1 3044   1.480   4.326   4.235  0.8450 -1.4530 -0.1936
 1075SOL    HW2 3045   1.571   4.388   4.356 -0.4184  0.0716  0.0204
 1076SOL     OW 3046   1.170   2.031   4.060 -0.6869  0.0783  0.7205
 1076SOL    HW1 3047   1.229   2.066   4.134 -0.0916  0.9815 -0.1564
 1076SOL    HW2 3048   1.083   2.002   4.099 -0.0434 -0.3447  1.9147
 1077SOL     OW 3049   0.529   1.245   3.647 -0.2387  0.4512 -0.6513
 1077SOL    HW1 3050   0.576   1.272   3.563  1.1903  0.9453  0.2820
 1077SOL    HW2 3051   0.485   1.156   3.633  1.5549 -0.3796 -1.3795
 1078SOL     OW 3052   1.657   1.652   3.238 -0.0165  0.0700 -0.1689
 1078SOL    HW1 3053   1.654   1.725   3.307  0.2506  0.0138 -0.0977
 1078SOL    HW2 3054   1.624   1.688   3.150  0.7062  0.4466 -0.2889
 1079SOL     OW 3055   0.528   2.563   1.885  0.2866 -0.5160 -0.1267
 1079SOL    HW1 3056   0.535   2.646   1.829  1.4784 -0.1450  0.5182
 1079SOL    HW2 3057   0.517   2.589   1.981  0.1860 -1.1110  0.0254
 1080SOL     OW 3058   1.542   3.280   2.695  0.4040 -0.2368  0.0365
 1080SOL    HW1 3059   1.521   3.375   2.675 -1.8240 -0.4738  0.8609
 1080SOL    HW2 3060   1.521   3.224   2.615  2.5543  0.0053 -0.7543
 1081SOL     OW 3061   3.657   1.896   3.556 -0.2227  0.3975  0.1613
 1081SOL    HW1 3062   3.585   1.847   3.605  0.8565 -0.7521  0.6369
 1081SOL    HW2 3063   3.617   1.977   3.512 -1.2528  1.4836  2.8611
 1082SOL     OW 3064   4.164   3.961   1.360  0.1379  0.5160 -0.1282
 1082SOL    HW1 3065   4.205   3.898   1.295  0.6268  0.6189  0.0745
 1082SOL    HW2 3066   4.070   3.932   1.381 -0.7776  1.5695 -2.3710
 1083SOL     OW 3067   3.102   3.862   4.917 -0.3219  0.0507 -0.1516
 1083SOL    HW1 3068   3.112   3.806   4.999  0.1219 -1.2732 -1.0931
 1083SOL    HW2 3069   3.009   3.899   4.914 -1.3618 -2.4028 -0.5784
 1084SOL     OW 3070   0.143   2.161   4.370 -0.0375  0.2691  0.2237
 1084SOL    HW1 3071   0.077   2.119   4.308  2.0161  0.0546 -1.9906
 1084SOL    HW2 3072   0.130   2.125   4.462 -2.2218 -0.5922 -0.3628
 1085SOL     OW 3073   4.792   0.845   0.680 -0.2111 -0.4625 -0.4031
 1085SOL    HW1 3074   4.843   0.922   0.642  0.0660 -0.5605 -0.2256
 1085SOL    HW2 3075   4.838   0.810   0.762 -1.3203  0.3746  0.6072
 1086SOL     OW 3076   4.428   2.178   3.261  0.0405 -0.2404  0.3811
 1086SOL    HW1 3077   4.426   2.078   3.255 -0.4663 -0.2494  0.6869
 1086SOL    HW2 3078   4.495   2.206   3.331 -0.4655 -0.3964  0.9348
 1087SOL     OW 3079   0.551   2.319   2.368  0.1400 -0.8182 -0.1096
 1087SOL    HW1 3080   0.602   2.317   2.281  1.2894  1.3422  0.4305
 1087SOL    HW2 3081   0.474   2.256   2.363  0.4707 -1.1361 -2.5144
 1088SOL     OW 3082   1.092   2.874   0.487 -0.1722 -0.3230  0.3958
 1088SOL    HW1 3083   1.119   2.778   0.473  1.5387  0.0272  1.1081
 1088SOL    HW2 3084   1.152   2.916   0.554  0.8115  1.9854 -1.7689
 1089SOL     OW 3085   0.690   2.830   3.908 -0.0775 -0.0462 -0.1478
 1089SOL    HW1 3086   0.648   2.832   3.998 -1.7172 -0.5617 -0.8643
 1089SOL    HW2 3087   0.770   2.891   3.907 -1.7573  2.3222  0.8121
 1090SOL     OW 3088   1.040   3.326   2.753 -0.6136 -0.1127  0.6724
 1090SOL    HW1 3089   1.079   3.298   2.841 -0.0531 -2.0380 -0.1258
 1090SOL    HW2 3090   0.959   3.270   2.733  0.2223 -0.8891 -0.7521
 1091SOL     OW 3091   3.608   3.747   4.034 -0.1057 -0.0650 -0.7569
 1091SOL    HW1 3092   3.612   3.732   3.935 -1.1106 -0.9089 -0.6854
 1091SOL    HW2 3093   3.701   3.745   4.072  0.1403 -1.9847 -1.3802
 1092SOL     OW 3094   1.659   4.432   2.858  0.0644 -0.6249 -0.1299
 1092SOL    HW1 3095   1.652   4.418   2.957 -0.4796 -2.2481 -0.3631
 1092SOL    HW2 3096   1.670   4.343   2.813  2.7731  0.2172 -1.3581
 1093SOL     OW 3097   1.395   0.112   4.121 -0.1776 -0.5201  0.5095
 1093SOL    HW1 3098   1.395   0.016   4.149  0.8201 -0.1285  1.9981
 1093SOL    HW2 3099   1.472   0.159   4.164 -0.3168  0.8314 -0.6444
 1094SOL     OW 3100   1.570   0.241   4.253 -0.2433  0.1481  0.0955
 1094SOL    HW1 3101   1.615   0.316   4.203  0.0558 -0.6897 -0.9368
 1094SOL    HW2 3102   1.609   0.235   4.345  0.5396  0.5467 -0.1955
 1095SOL     OW 3103   1.916   1.169   0.833  0.4422 -0.1669  0.0521
 1095SOL    HW1 3104   1.957   1.193   0.744 -0.5760 -0.0898 -0.4065
 1095SOL    HW2 3105   1.819   1.150   0.821  0.2947 -0.1704  1.1648
 1096SOL     OW 3106   1.512   1.732   3.885  0.1959  0.0484 -0.0373
 1096SOL    HW1 3107   1.561   1.694   3.806  0.8850  2.3120 -0.7811
 1096SOL    HW2 3108   1.572   1.795   3.934 -1.3918  1.5477  0.0592
 1097SOL     OW 3109   1.485   1.892   4.273 -0.3039 -0.3840 -0.3448
 1097SOL    HW1 3110   1.430   1.974   4.285 -0.0198 -0.1615 -0.5435
 1097SOL    HW2 3111   1.550   1.906   4.198  1.6295  0.2338  1.3477
 1098SOL     OW 3112   1.676   1.109   2.681 -0.8826 -0.5312  0.2175
 1098SOL    HW1 3113   1.739   1.094   2.604 -1.2606 -0.4048 -0.1178
 1098SOL    HW2 3114   1.680   1.031   2.743 -0.5260 -0.6044  0.1056
 1099SOL     OW 3115   1.331   3.803   0.709  0.1517  0.2892 -0.6361
 1099SOL    HW1 3116   1.396   3.869   0.670 -0.0390  1.2988  0.6505
 1099SOL    HW2 3117   1.245   3.807   0.659 -0.1094  1.5860 -0.1271
 1100SOL     OW 3118   1.115   3.816   2.287 -0.0195  0.3364 -0.0363
 1100SOL    HW1 3119   1.149   3.854   2.373 -0.7474 -0.1838  0.4867
 1100SOL    HW2 3120   1.054   3.882   2.243 -0.4715  0.1892  0.3641
 1101SOL     OW 3121   4.386   3.217   2.085 -1.2290  0.4322  0.2307
 1101SOL    HW1 3122   4.438   3.208   2.000  0.4279 -0.2184  1.2553
 1101SOL    HW2 3123   4.422   3.295   2.138 -1.1578 -0.1344  1.0424
 1102SOL     OW 3124   0.166   4.270   1.583 -0.5731  0.2296 -0.2978
 1102SOL    HW1 3125   0.067   4.263   1.580 -0.5209 -0.7342  0.0608
 1102SOL    HW2 3126   0.205   4.238   1.497 -0.5582  0.3215 -0.3254
 1103SOL     OW 3127   2.114   5.028   1.927 -0.7055 -0.6254 -0.2754
 1103SOL    HW1 3128   2.130   4.983   1.839 -0.8963 -0.3083 -0.4753
 1103SOL    HW2 3129   2.187   5.005   1.990 -0.4887 -0.7376 -0.5649
 1104SOL     OW 3130   3.959   2.140   3.977 -0.2204  0.0234 -0.0150
 1104SOL    HW1 3131   3.860   2.130   3.982 -0.1998 -0.6024 -0.7054
 1104SOL    HW2 3132   3.986   2.228   4.015 -0.6789 -1.3941  4.0930
 1105SOL     OW 3133   4.752   2.230   2.162  0.3402  0.1356 -0.3364
 1105SOL    HW1 3134   4.658   2.209   2.190 -0.7190 -0.4792 -3.7982
 1105SOL    HW2 3135   4.812   2.155   2.187 -0.9981 -1.4844 -1.6782
 1106SOL     OW 3136   0.596   3.913   3.682  0.3165 -0.5015 -0.0391
 1106SOL    HW1 3137   0.554   3.980   3.744  1.1175 -1.4697  1.6155
 1106SOL    HW2 3138   0.695   3.910   3.698  0.2329 -2.5090  0.4194
 1107SOL     OW 3139   2.499   1.329   2.621  0.0599 -0.4757  0.1238
 1107SOL    HW1 3140   2.459   1.343   2.711 -3.0559 -1.5049 -0.9488
 1107SOL    HW2 3141   2.576   1.265   2.628 -0.5628 -1.0824  1.9602
 1108SOL     OW 3142   4.532   2.552   2.139 -0.1647  0.1397  0.1519
 1108SOL    HW1 3143   4.435   2.559   2.116  0.1556 -0.2381 -1.3960
 1108SOL    HW2 3144   4.544   2.573   2.236 -1.6564  1.2211  0.1489
 1109SOL     OW 3145   2.528   2.817   3.383  0.3297  1.1034  0.1462
 1109SOL    HW1 3146   2.444   2.812   3.437  0.6895  0.8367  0.6941
 1109SOL    HW2 3147   2.598   2.759   3.426  1.4160  2.8241  0.8076
 1110SOL     OW 3148   3.731   1.555   3.775 -0.2874  0.2058 -0.5334
 1110SOL    HW1 3149   3.773   1.527   3.862 -0.3304 -0.7080 -0.7912
 1110SOL    HW2 3150   3.790   1.621   3.730 -0.8146  1.5691  0.7089
 1111SOL     OW 3151   0.711   4.631   3.496 -0.4623  0.4508  0.2197
 1111SOL    HW1 3152   0.686   4.554   3.437 -0.1289 -0.3748  1.1367
 1111SOL    HW2 3153   0.809   4.647   3.490 -0.4628  0.5162  0.3682
 1112SOL     OW 3154   3.201   1.403   2.444  0.3549 -0.4947  0.2025
 1112SOL    HW1 3155   3.259   1.468   2.493 -1.0290  0.0359  1.2106
 1112SOL    HW2 3156   3.105   1.427   2.459 -0.1681 -2.3843  0.0270
 1113SOL     OW 3157   3.023   0.805   2.960 -0.2528 -0.6012 -0.2890
 1113SOL    HW1 3158   3.085   0.731   2.935 -0.6440 -0.8181 -0.6346
 1113SOL    HW2 3159   2.982   0.843   2.877  1.5639  1.4714 -0.3393
 1114SOL     OW 3160   1.763   2.433   1.063  0.6051 -0.0966  0.2049
 1114SOL    HW1 3161   1.808   2.344   1.071  1.6814  0.4311  0.2594
 1114SOL    HW2 3162   1.731   2.463   1.153  2.0969  0.4817  0.5774
 1115SOL     OW 3163   1.435   3.345   2.940  0.4477 -0.2054  0.5489
 1115SOL    HW1 3164   1.433   3.445   2.934 -0.3095 -0.3249 -2.2308
 1115SOL    HW2 3165   1.479   3.307   2.859 -1.9835 -2.2206  0.0536
 1116SOL     OW 3166   1.553   1.005   1.674 -0.2205  1.0464 -0.3795
 1116SOL    HW1 3167   1.582   1.004   1.769 -1.1197 -0.2176 -0.0996
 1116SOL    HW2 3168   1.463   0.963   1.665  0.4410 -0.1440 -1.9659
 1117SOL     OW 3169   2.313   2.711   0.922 -0.0135  0.5955 -0.2989
 1117SOL    HW1 3170   2.225   2.699   0.969  0.5957  2.2587  1.3827
 1117SOL    HW2 3171   2.367   2.627   0.929 -0.3527  0.4743  1.1280
 1118SOL     OW 3172   1.467   2.554   1.769  0.2601 -0.5199 -0.1968
 1118SOL    HW1 3173   1.536   2.603   1.715  1.7798  1.3284  3.1014
 1118SOL    HW2 3174   1.508   2.472   1.809  0.2773  0.0565  0.9914
 1119SOL     OW 3175   4.988   2.600   3.118 -0.2657 -0.1892  0.2430
 1119SOL    HW1 3176   4.993   2.693   3.082  1.9292 -0.2425  0.2659
 1119SOL    HW2 3177   5.047   2.591   3.198  0.0042 -1.7249 -0.0824
 1120SOL     OW 3178   0.093   3.232   2.571  0.1624 -0.7740 -0.3726
 1120SOL    HW1 3179   0.107   3.133   2.564 -2.4576 -1.2968  0.4076
 1120SOL    HW2 3180   0.032   3.262   2.498 -0.9859 -0.2287  0.7635
 1121SOL     OW 3181   1.307   2.130   0.464  0.2096  0.1283  0.8047
 1121SOL    HW1 3182   1.220   2.179   0.472  0.4334  0.3017  2.9499
 1121SOL    HW2 3183   1.308   2.053   0.529  2.0342  0.7917  1.6412
 1122SOL     OW 3184   4.455   1.117   3.875  0.3048  0.1640  0.5441
 1122SOL    HW1 3185   4.475   1.046   3.806  0.4484  1.0168 -0.3174
 1122SOL    HW2 3186   4.536   1.173   3.889  0.3367 -0.1346  1.5827
 1123SOL     OW 3187   0.909   3.825   4.542  0.3743  0.2780  0.0760
 1123SOL    HW1 3188   0.965   3.745   4.562 -0.2071  0.1808  1.4690
 1123SOL    HW2 3189   0.961   3.889   4.485  1.0386 -0.8277 -0.5942
 1124SOL     OW 3190   4.021   3.173   2.800  0.6466 -0.1980 -0.6249
 1124SOL    HW1 3191   3.979   3.216   2.719  2.7165 -1.0293 -2.2250
 1124SOL    HW2 3192   4.073   3.241   2.851 -1.9938  0.7159  1.0653
 1125SOL     OW 3193   0.620   0.533   0.377  0.5700 -0.1586  0.4872
 1125SOL    HW1 3194   0.618   0.597   0.300 -0.6169 -2.2525 -1.3403
 1125SOL    HW2 3195   0.715   0.520   0.407  1.2512 -0.3314 -1.5874
 1126SOL     OW 3196   1.822   4.298   3.540  0.1370  0.0372 -0.2051
 1126SOL    HW1 3197   1.886   4.342   3.603  0.0940 -0.8326  0.4709
 1126SOL    HW2 3198   1.866   4.285   3.451  0.4972  0.5039 -0.0956
 1127SOL     OW 3199   2.841   0.755   4.482  0.2082  0.3995 -0.0819
 1127SOL    HW1 3200   2.805   0.699   4.557 -1.3202  2.0048  0.4513
 1127SOL    HW2 3201   2.784   0.744   4.401  1.8770 -1.3565 -1.0954
 1128SOL     OW 3202   0.228   4.193   3.229  0.4066  0.6524 -0.0620
 1128SOL    HW1 3203   0.173   4.121   3.186  1.5094 -1.0892  1.3068
 1128SOL    HW2 3204   0.168   4.253   3.283 -0.3766 -0.0843 -0.0881
 1129SOL     OW 3205   4.914   2.841   3.333 -0.3577 -1.0378  0.2603
 1129SOL    HW1 3206   4.920   2.866   3.236 -2.2154  0.6029  0.4965
 1129SOL    HW2 3207   5.001   2.802   3.363  0.8451  0.0283 -1.6213
 1130SOL     OW 3208   1.257   3.256   4.265  0.0208 -0.2263  0.0474
 1130SOL    HW1 3209   1.291   3.336   4.313 -2.1077 -0.3608  1.9432
 1130SOL    HW2 3210   1.334   3.201   4.231  1.6456  0.1730  2.8103
 1131SOL     OW 3211   0.089   2.751   0.027 -0.3288  0.2063 -0.1837
 1131SOL    HW1 3212   0.173   2.722  -0.020  0.0586 -0.0364  0.6434
 1131SOL    HW2 3213   0.022   2.678   0.023 -1.0351  0.8786 -2.0243
 1132SOL     OW 3214   1.543   4.784   4.019 -0.3930 -0.1980 -0.4104
 1132SOL    HW1 3215   1.605   4.853   4.056 -0.4533 -0.8059  0.9162
 1132SOL    HW2 3216   1.594   4.717   3.966  0.1322 -0.7224  0.7151
 1133SOL     OW 3217   0.484   1.934   4.128 -0.4775  0.3145  0.1582
 1133SOL    HW1 3218   0.563   1.934   4.188  0.7194 -0.9563 -1.3235
 1133SOL    HW2 3219   0.444   2.026   4.125  0.6266  0.8593  1.3038
 1134SOL     OW 3220   3.718   3.003   4.210  0.2209  0.1252  0.7871
 1134SOL    HW1 3221   3.695   3.077   4.146 -1.3420 -0.5438  0.5388
 1134SOL    HW2 3222   3.655   2.927   4.197  2.4326 -1.7502  0.2707
 1135SOL     OW 3223   3.801   4.504   4.041 -0.1665  0.0094  0.3451
 1135SOL    HW1 3224   3.877   4.562   4.070 -0.2266  0.9158 -1.1631
 1135SOL    HW2 3225   3.833   4.438   3.973 -0.2738 -1.2053  1.4400
 1136SOL     OW 3226   0.844   2.153   2.400  0.1820  0.3396 -0.0857
 1136SOL    HW1 3227   0.775   2.168   2.329  0.3112  1.0509 -0.0662
 1136SOL    HW2 3228   0.912   2.226   2.396  1.0757 -0.4869 -0.2659
 1137SOL     OW 3229   1.135   2.607   0.455 -0.1152  0.0107 -0.4465
 1137SOL    HW1 3230   1.100   2.584   0.364  0.4559 -1.3706 -0.3409
 1137SOL    HW2 3231   1.084   2.557   0.524  0.1099  0.2782 -0.0870
 1138SOL     OW 3232   0.026   4.704   4.306 -0.1171 -0.1005  0.4454
 1138SOL    HW1 3233  -0.005   4.640   4.377  0.6272 -0.7471  0.2014
 1138SOL    HW2 3234   0.121   4.729   4.323  0.3764 -1.0176 -0.8436
 1139SOL     OW 3235   1.914   3.645   4.856  0.0924  0.3073  0.2184
 1139SOL    HW1 3236   2.012   3.628   4.848 -0.0215  0.1096 -0.9238
 1139SOL    HW2 3237   1.897   3.707   4.932  0.9865 -0.5893  1.1716
 1140SOL     OW 3238   1.637   1.890   4.506 -0.5170  0.2615 -0.4507
 1140SOL    HW1 3239   1.578   1.913   4.428 -1.0550 -0.4479 -0.2725
 1140SOL    HW2 3240   1.656   1.792   4.504  1.1632  0.5702 -0.8314
 1141SOL     OW 3241   2.023   2.140   3.460 -0.0167  0.0969  0.2585
 1141SOL    HW1 3242   1.926   2.118   3.457  0.3625 -2.1004  1.5811
 1141SOL    HW2 3243   2.077   2.056   3.455  1.8401  1.2634 -0.5199
 1142SOL     OW 3244   0.231   2.581   2.568 -0.1321  0.1182 -0.1684
 1142SOL    HW1 3245   0.322   2.573   2.610 -0.2806  0.1184  0.1596
 1142SOL    HW2 3246   0.218   2.505   2.504  0.4246  0.5932 -0.8523
 1143SOL     OW 3247   0.619   0.131   0.282 -0.0176 -0.1127 -0.4060
 1143SOL    HW1 3248   0.592   0.048   0.232 -1.2716  0.2603 -0.3685
 1143SOL    HW2 3249   0.548   0.200   0.273  0.0373  0.2048  1.3345
 1144SOL     OW 3250   2.204   4.221   4.497  0.0241  0.6840  0.3803
 1144SOL    HW1 3251   2.280   4.249   4.439  1.5467 -3.2344  0.1760
 1144SOL    HW2 3252   2.228   4.234   4.593  0.9650 -0.4157  0.3106
 1145SOL     OW 3253   2.459   1.627   2.849 -0.1387 -0.0715  0.8854
 1145SOL    HW1 3254   2.483   1.530   2.841 -0.6140 -0.1198 -0.1847
 1145SOL    HW2 3255   2.537   1.678   2.886  0.9452 -0.5260 -0.6523
 1146SOL     OW 3256   1.593   2.514   3.779 -0.0182  0.3202 -0.1802
 1146SOL    HW1 3257   1.607   2.534   3.681  0.1459 -0.3906 -0.3024
 1146SOL    HW2 3258   1.644   2.432   3.804 -0.2112  0.3947  0.4665
 1147SOL     OW 3259   1.364   3.292   3.704 -0.2806  0.0792 -0.2526
 1147SOL    HW1 3260   1.394   3.319   3.795 -0.0610  1.6266 -0.7577
 1147SOL    HW2 3261   1.427   3.223   3.666  0.4168  0.4534  0.2158
 1148SOL     OW 3262   5.029   3.235   0.202  0.0396  0.6256  0.6183
 1148SOL    HW1 3263   5.110   3.287   0.229  0.4953  0.0161  0.4439
 1148SOL    HW2 3264   4.967   3.226   0.280  0.2521  0.8865  0.8184
 1149SOL     OW 3265   3.117   1.331   4.766  0.0263  0.3056 -0.4628
 1149SOL    HW1 3266   3.041   1.384   4.804  0.9575 -0.3093  2.4890
 1149SOL    HW2 3267   3.200   1.386   4.767  0.3619 -0.1950 -0.2650
 1150SOL     OW 3268   1.221   4.266   3.438  0.0757  0.5715 -0.0382
 1150SOL    HW1 3269   1.194   4.236   3.347  1.8890 -0.1890 -0.3642
 1150SOL    HW2 3270   1.239   4.186   3.495  1.3496  1.0319  0.2258
 1151SOL     OW 3271   2.048   2.958   0.282 -0.7544 -0.2094  0.3406
 1151SOL    HW1 3272   1.952   2.957   0.253 -0.9232 -0.3569  0.9055
 1151SOL    HW2 3273   2.064   3.039   0.339 -0.3965  0.1318 -0.2292
 1152SOL     OW 3274   1.508   3.398   4.318 -0.0770  0.8435 -0.7992
 1152SOL    HW1 3275   1.525   3.308   4.278 -0.7722  0.9559 -1.3760
 1152SOL    HW2 3276   1.544   3.401   4.411 -0.8460 -0.3503 -0.4392
 1153SOL     OW 3277   5.006   4.155   3.648  0.1256  0.1914 -0.3119
 1153SOL    HW1 3278   4.927   4.096   3.638 -1.2196  2.0147 -0.9213
 1153SOL    HW2 3279   5.031   4.193   3.559  1.1101  0.3744  0.0314
 1154SOL     OW 3280   0.338   3.383   4.998 -0.2006 -0.2246  0.1993
 1154SOL    HW1 3281   0.275   3.455   4.971 -1.2160 -0.1031  2.6216
 1154SOL    HW2 3282   0.407   3.419   5.061  1.6286 -0.6179 -1.4824
 1155SOL     OW 3283   4.773   3.021   4.760  0.5659  0.9664  0.2390
 1155SOL    HW1 3284   4.840   3.070   4.704  0.5671  0.0218 -0.6074
 1155SOL    HW2 3285   4.682   3.033   4.721  0.8336 -1.4823 -1.2878
 1156SOL     OW 3286   1.528   3.143   3.533  0.7695  0.7780 -0.3988
 1156SOL    HW1 3287   1.530   3.193   3.447 -0.0887  0.0087 -0.8782
 1156SOL    HW2 3288   1.567   3.052   3.520  0.0273  0.4154 -0.1357
 1157SOL     OW 3289   0.997   3.020   1.194 -0.1396 -0.1390 -0.0692
 1157SOL    HW1 3290   0.990   3.094   1.262 -1.3369  0.4928 -0.8340
 1157SOL    HW2 3291   1.050   3.052   1.115  0.7904 -0.6913  0.3149
 1158SOL     OW 3292   1.885   3.215   3.157 -0.5592 -0.0148  0.1041
 1158SOL    HW1 3293   1.893   3.232   3.255  0.9925  1.5436 -0.2510
 1158SOL    HW2 3294   1.976   3.211   3.116 -1.1252 -2.2162 -1.0621
 1159SOL     OW 3295   1.415   4.081   3.273  0.3402  0.4338  0.6720
 1159SOL    HW1 3296   1.336   4.039   3.229  1.9076 -2.1897  0.1173
 1159SOL    HW2 3297   1.416   4.179   3.254 -0.6458 -0.0789 -2.7096
 1160SOL     OW 3298   1.364   3.470   4.610  0.4289 -0.8594  0.3260
 1160SOL    HW1 3299   1.463   3.486   4.608  0.6024 -0.6850  3.5994
 1160SOL    HW2 3300   1.347   3.373   4.629 -0.1134 -1.1412 -1.4554
 1161SOL     OW 3301   4.416   1.456   4.990  0.0693 -0.1846 -0.5409
 1161SOL    HW1 3302   4.419   1.447   4.891 -0.2534  1.3592 -0.7166
 1161SOL    HW2 3303   4.357   1.533   5.015  2.4100  1.3507  0.6759
 1162SOL     OW 3304   1.532   0.673   1.192  0.4226  0.4741 -0.1584
 1162SOL    HW1 3305   1.502   0.639   1.103  0.3265  0.3711 -0.0867
 1162SOL    HW2 3306   1.545   0.595   1.254 -0.7165  0.6258  0.2996
 1163SOL     OW 3307   2.030   4.483   0.196 -0.7463  0.3190 -0.4447
 1163SOL    HW1 3308   1.986   4.485   0.286 -0.2317  0.6489 -0.1921
 1163SOL    HW2 3309   2.066   4.391   0.179  1.8121  0.9637  1.0285
 1164SOL     OW 3310   2.045   2.613   3.522 -0.1332  0.1498 -0.0558
 1164SOL    HW1 3311   1.982   2.653   3.588 -0.8665  0.5438 -0.9825
 1164SOL    HW2 3312   2.082   2.527   3.559  1.3719  1.5541  1.9032
 1165SOL     OW 3313   3.911   0.889   3.449  0.2301 -0.3622  0.2141
 1165SOL    HW1 3314   3.834   0.948   3.474 -1.1755 -1.9996 -0.0201
 1165SOL    HW2 3315   3.971   0.879   3.528 -1.7014 -1.8125  1.6121
 1166SOL     OW 3316   2.472   2.211   4.580  0.1028  0.1067  0.1522
 1166SOL    HW1 3317   2.487   2.260   4.494  0.6964  0.3261  0.3752
 1166SOL    HW2 3318   2.496   2.271   4.657  1.0153 -0.5928  0.4203
 1167SOL     OW 3319   0.148   3.283   3.899  0.3877  0.1385  0.1776
 1167SOL    HW1 3320   0.190   3.285   3.990  2.1360  0.3826 -0.6003
 1167SOL    HW2 3321   0.218   3.267   3.830 -0.6276  1.7748 -1.3133
 1168SOL     OW 3322   1.592   4.078   3.840 -0.2334  0.1883  0.4290
 1168SOL    HW1 3323   1.510   4.129   3.815  0.4849  1.0533 -0.2306
 1168SOL    HW2 3324   1.566   3.989   3.877 -1.4513  0.2853 -0.1512
 1169SOL     OW 3325   0.764   4.072   0.409  0.2358 -0.5465  0.2026
 1169SOL    HW1 3326   0.809   4.106   0.492 -0.3671 -1.3454  0.8774
 1169SOL    HW2 3327   0.668   4.099   0.410  0.3015 -0.2833 -0.3990
 1170SOL     OW 3328   1.511   2.303   0.393 -0.5284  0.4364  0.1924
 1170SOL    HW1 3329   1.558   2.316   0.480  0.2687  1.1876 -0.3261
 1170SOL    HW2 3330   1.430   2.245   0.406 -0.9619  1.3174  1.5923
 1171SOL     OW 3331   0.965   3.972   3.926 -0.2369 -0.2878 -0.4823
 1171SOL    HW1 3332   1.041   3.931   3.875 -0.0741  0.2074 -0.6487
 1171SOL    HW2 3333   0.906   3.900   3.962 -0.7736 -0.6386 -1.9954
 1172SOL     OW 3334   4.641   2.273   3.400 -0.3671 -0.2876  0.4810
 1172SOL    HW1 3335   4.651   2.316   3.489 -0.8694 -0.7781  0.7816
 1172SOL    HW2 3336   4.701   2.318   3.334 -0.3448  0.3842  0.9535
 1173SOL     OW 3337   2.323   1.389   4.418 -0.1806 -0.1366 -0.6111
 1173SOL    HW1 3338   2.343   1.368   4.513 -0.3883 -1.1520 -0.7781
 1173SOL    HW2 3339   2.265   1.317   4.379  0.0027  0.1990 -1.5369
 1174SOL     OW 3340   1.815   4.025   4.360  0.7124 -0.3619 -0.3556
 1174SOL    HW1 3341   1.724   3.988   4.377  0.8403 -1.6174 -2.1231
 1174SOL    HW2 3342   1.829   4.034   4.261  1.7320  1.8519 -0.0676
 1175SOL     OW 3343   2.682   2.577   0.462 -0.0071 -0.1888  0.0328
 1175SOL    HW1 3344   2.731   2.662   0.442 -0.6278 -0.2344 -1.9101
 1175SOL    HW2 3345   2.611   2.563   0.392 -0.7292 -1.6841  1.0229
 1176SOL     OW 3346   0.691   2.516   3.072 -0.3172 -0.6951  0.1322
 1176SOL    HW1 3347   0.677   2.421   3.042 -1.1474 -0.1176 -1.4343
 1176SOL    HW2 3348   0.789   2.538   3.067 -0.3816 -0.6460 -2.3150
 1177SOL     OW 3349   0.746   4.558   3.195  0.4256 -0.1112 -0.2814
 1177SOL    HW1 3350   0.837   4.599   3.199  0.5360 -0.1554 -1.7711
 1177SOL    HW2 3351   0.737   4.489   3.267  0.4916  1.9190  1.8234
 1178SOL     OW 3352   1.171   2.266   3.829  0.0753  0.5750 -0.2755
 1178SOL    HW1 3353   1.137   2.293   3.920  1.3451  0.8614  0.1293
 1178SOL    HW2 3354   1.188   2.167   3.828  1.7217  0.8249  0.3854
 1179SOL     OW 3355   2.468   3.192   3.186 -1.0306 -0.1154 -0.4559
 1179SOL    HW1 3356   2.543   3.156   3.241 -1.1938 -0.3349 -0.3785
 1179SOL    HW2 3357   2.446   3.285   3.216 -0.9897 -0.1626 -0.2803
 1180SOL     OW 3358   0.605   2.989   3.467 -0.1328  0.1142  0.0903
 1180SOL    HW1 3359   0.526   2.931   3.487  0.2885 -0.2208  0.8359
 1180SOL    HW2 3360   0.583   3.051   3.392 -0.6193 -0.9530 -0.6770
 1181SOL     OW 3361   0.365   2.094   3.611  0.0219  0.0706  0.1383
 1181SOL    HW1 3362   0.365   2.122   3.707 -1.6919 -0.1317  0.2314
 1181SOL    HW2 3363   0.401   2.169   3.555 -2.0993  1.5866  0.6456
 1182SOL     OW 3364   4.660   1.464   4.639 -0.5755 -0.4014 -0.3593
 1182SOL    HW1 3365   4.654   1.549   4.586 -2.5411  0.7481  1.5418
 1182SOL    HW2 3366   4.700   1.392   4.582  1.5440  1.8496 -1.9181
 1183SOL     OW 3367   1.884   0.908   3.657 -0.0691 -0.7169 -0.7947
 1183SOL    HW1 3368   1.786   0.889   3.649 -0.7075  1.9927 -0.2774
 1183SOL    HW2 3369   1.930   0.884   3.572 -1.5325 -0.1303 -1.7844
 1184SOL     OW 3370   2.980   0.850   3.238 -0.2218  0.3792  0.6871
 1184SOL    HW1 3371   3.012   0.836   3.145  1.0383  2.2858  0.7899
 1184SOL    HW2 3372   2.981   0.762   3.287  1.2767 -0.2718 -0.4315
 1185SOL     OW 3373   0.079   0.148   3.260 -0.6554  0.4139  0.7768
 1185SOL    HW1 3374   0.137   0.129   3.181  0.6438  0.6226  1.6522
 1185SOL    HW2 3375  -0.017   0.131   3.236 -0.1985 -0.4385 -0.5507
 1186SOL     OW 3376   1.015   3.579   4.164 -0.5062 -0.0257 -0.0910
 1186SOL    HW1 3377   1.099   3.619   4.201  0.7978 -1.2535 -1.5645
 1186SOL    HW2 3378   1.016   3.480   4.180 -0.7745 -0.3156 -1.7083
 1187SOL     OW 3379   1.611   2.574   3.511  0.3092 -0.0604 -0.4030
 1187SOL    HW1 3380   1.657   2.533   3.433  0.0220  3.0247 -2.3446
 1187SOL    HW2 3381   1.512   2.570   3.499  0.1996 -0.8459  0.5676
 1188SOL     OW 3382   1.556   3.897   4.654  0.3331  1.0427  0.0573
 1188SOL    HW1 3383   1.493   3.938   4.721 -0.6698 -0.9007  0.3540
 1188SOL    HW2 3384   1.553   3.950   4.569 -1.2184  1.3733  0.2879
 1189SOL     OW 3385   4.805   2.397   2.444 -0.8092 -0.1977  0.5507
 1189SOL    HW1 3386   4.869   2.395   2.521 -0.8473  0.6017  0.6106
 1189SOL    HW2 3387   4.854   2.423   2.361 -0.8274 -0.7696  0.3560
 1190SOL     OW 3388   2.132   1.870   3.305 -0.1702  0.3873  0.2121
 1190SOL    HW1 3389   2.158   1.788   3.253  3.7462  1.6039 -0.1110
 1190SOL    HW2 3390   2.203   1.889   3.373  0.3991  4.7277 -1.2904
 1191SOL     OW 3391   0.680   1.503   4.183 -0.1323 -0.2656 -0.4192
 1191SOL    HW1 3392   0.698   1.569   4.110 -0.7640 -0.4887 -0.7763
 1191SOL    HW2 3393   0.603   1.446   4.159 -1.0206  0.3330  0.8617
 1192SOL     OW 3394   1.541   2.771   4.506 -0.3938  0.2480 -0.0785
 1192SOL    HW1 3395   1.586   2.682   4.506  1.3331  1.0389 -1.8146
 1192SOL    HW2 3396   1.479   2.777   4.584 -0.4031 -2.3589  0.2157
 1193SOL     OW 3397   1.287   5.005   4.497 -0.1093  0.1151  0.2944
 1193SOL    HW1 3398   1.353   5.054   4.554 -1.0034  0.1863  1.2952
 1193SOL    HW2 3399   1.293   4.907   4.515  1.0507 -0.0856 -1.0452
 1194SOL     OW 3400   0.714   4.460   0.222 -0.5446 -0.6136  0.2580
 1194SOL    HW1 3401   0.619   4.447   0.249 -0.7458 -1.2725 -0.7395
 1194SOL    HW2 3402   0.760   4.371   0.218 -0.4515 -0.5232 -1.2630
 1195SOL     OW 3403   1.416   1.532   4.020  0.1831  0.4090  0.2512
 1195SOL    HW1 3404   1.438   1.616   3.970  1.6101 -1.4027 -2.4179
 1195SOL    HW2 3405   1.487   1.514   4.088  0.9930  0.3675 -0.5788
 1196SOL     OW 3406   1.580   2.836   5.012  1.0165  0.6264 -0.2141
 1196SOL    HW1 3407   1.621   2.830   5.103  0.9457  0.9133 -0.1626
 1196SOL    HW2 3408   1.596   2.927   4.974  1.4709  0.3561 -0.6937
 1197SOL     OW 3409   0.273   1.481   4.597 -0.4190 -0.2326  0.4393
 1197SOL    HW1 3410   0.185   1.471   4.642 -1.3309 -0.7995 -1.3555
 1197SOL    HW2 3411   0.333   1.406   4.624 -0.2894  0.4141  2.0308
 1198SOL     OW 3412   1.652   3.689   4.783  0.0044 -0.1200 -0.2025
 1198SOL    HW1 3413   1.634   3.770   4.728 -1.2722  0.1085  0.5116
 1198SOL    HW2 3414   1.746   3.694   4.819 -0.0806  1.0963 -0.0866
 1199SOL     OW 3415   2.238   2.841   0.523  0.2603  0.3696  0.2343
 1199SOL    HW1 3416   2.315   2.903   0.539 -0.2523  0.8869  0.7499
 1199SOL    HW2 3417   2.152   2.892   0.532 -0.1370  0.2588 -2.1854
 1200SOL     OW 3418   1.500   1.995   0.315 -0.5529 -0.0660 -0.2659
 1200SOL    HW1 3419   1.505   1.900   0.346  1.1535  0.9331  2.9994
 1200SOL    HW2 3420   1.409   2.031   0.333 -0.5706 -0.4852  0.5331
 1201SOL     OW 3421   4.646   3.036   0.988  0.4202  0.5079 -0.1371
 1201SOL    HW1 3422   4.649   3.090   1.072  1.2023  0.5409 -0.1792
 1201SOL    HW2 3423   4.665   3.095   0.910  0.4536  0.3316 -0.2630
 1202SOL     OW 3424   0.254   2.983   4.464  0.0191  0.5163  0.4321
 1202SOL    HW1 3425   0.209   3.044   4.398  1.3660  1.4151  0.3033
 1202SOL    HW2 3426   0.186   2.942   4.523 -0.9813  1.7967  0.2184
 1203SOL     OW 3427   1.759   2.804   4.253 -0.4204 -0.5473 -0.1474
 1203SOL    HW1 3428   1.687   2.862   4.291 -1.5081 -1.2912 -0.9966
 1203SOL    HW2 3429   1.719   2.718   4.222  1.1263 -1.7243  0.9648
 1204SOL     OW 3430   0.506   3.263   4.668 -0.0756 -0.2275  0.1007
 1204SOL    HW1 3431   0.440   3.223   4.732 -1.0813 -0.6538 -1.1523
 1204SOL    HW2 3432   0.528   3.196   4.597  1.5526 -0.0071  0.3627
 1205SOL     OW 3433   0.520   1.318   0.309 -0.6949  0.2667  0.0346
 1205SOL    HW1 3434   0.611   1.350   0.335 -0.0463  0.4619 -2.3180
 1205SOL    HW2 3435   0.498   1.235   0.361 -0.2858  1.5839  2.4622
 1206SOL     OW 3436   0.697   2.621   1.415 -0.1729 -0.9221  0.3789
 1206SOL    HW1 3437   0.726   2.717   1.414 -0.8848 -0.6565  2.2527
 1206SOL    HW2 3438   0.777   2.562   1.408  0.4676 -0.1873  1.3057
 1207SOL     OW 3439   1.437   0.644   0.919 -0.3722 -0.2595 -0.6421
 1207SOL    HW1 3440   1.365   0.574   0.911  0.1458 -0.8759 -0.0646
 1207SOL    HW2 3441   1.497   0.638   0.839  0.2614 -1.1773 -0.1229
 1208SOL     OW 3442   0.037   3.451   3.504  0.2052 -0.4308  0.5783
 1208SOL    HW1 3443  -0.061   3.443   3.485  0.1817  2.0570 -0.8140
 1208SOL    HW2 3444   0.052   3.455   3.602 -1.2446  0.4985  0.7776
 1209SOL     OW 3445   0.071   2.782   3.777 -0.1863 -0.0566  0.4520
 1209SOL    HW1 3446   0.018   2.710   3.821 -0.3597 -0.0731  0.2177
 1209SOL    HW2 3447   0.150   2.742   3.731 -0.4339 -0.1271  0.0907
 1210SOL     OW 3448   2.738   2.901   0.666  0.1733  0.1443 -0.5792
 1210SOL    HW1 3449   2.651   2.922   0.712  0.0841  0.0194 -0.6915
 1210SOL    HW2 3450   2.749   2.802   0.660 -0.9005  0.1030 -2.8309
 1211SOL     OW 3451   1.395   2.042   2.896  0.5310  0.0622 -0.5133
 1211SOL    HW1 3452   1.430   1.998   2.979 -0.0615  0.8867  0.1847
 1211SOL    HW2 3453   1.298   2.021   2.886  0.5253  0.2371 -0.8301
 1212SOL     OW 3454   2.892   3.091   4.028  0.2172  0.0591 -0.0910
 1212SOL    HW1 3455   2.967   3.083   4.093  0.2875 -1.2330 -0.3199
 1212SOL    HW2 3456   2.813   3.038   4.060  0.3557 -0.8464 -1.1798
 1213SOL     OW 3457   2.076   3.653   4.068 -0.0756  0.3753 -0.0256
 1213SOL    HW1 3458   2.024   3.657   4.153  0.2520 -1.1925  0.2747
 1213SOL    HW2 3459   2.073   3.742   4.023 -1.7474  0.7335  0.7276
 1214SOL     OW 3460   0.076   1.840   3.592 -0.1647 -0.7984  0.3783
 1214SOL    HW1 3461   0.088   1.822   3.494 -1.7849  0.4919 -0.0957
 1214SOL    HW2 3462   0.005   1.780   3.629  0.8818 -1.7325  0.9531
 1215SOL     OW 3463   1.261   3.235   1.220  0.0797  0.0974  0.4951
 1215SOL    HW1 3464   1.294   3.206   1.130  0.1841 -1.5505  1.0155
 1215SOL    HW2 3465   1.258   3.155   1.281 -1.1266  0.9466  1.6075
 1216SOL     OW 3466   0.932   2.973   3.728 -0.3446  0.2318  0.1712
 1216SOL    HW1 3467   0.898   2.912   3.657 -0.1818  0.0246  0.2726
 1216SOL    HW2 3468   1.028   2.997   3.709  0.6259 -2.0392  1.7882
 1217SOL     OW 3469   4.668   4.019   4.112  0.4558  0.1080  0.4718
 1217SOL    HW1 3470   4.641   4.071   4.193  0.7722  0.7691  0.1601
 1217SOL    HW2 3471   4.768   4.014   4.108  0.4227 -1.1292  0.8740
 1218SOL     OW 3472   0.050   3.185   4.958  0.1024 -0.6774  0.4873
 1218SOL    HW1 3473   0.005   3.230   5.035  0.2135  0.7002 -0.2092
 1218SOL    HW2 3474   0.141   3.155   4.985 -0.1057 -0.7917  1.0709
 1219SOL     OW 3475   0.524   3.347   3.673 -0.1142 -0.0867  0.2891
 1219SOL    HW1 3476   0.589   3.297   3.729  0.1977  0.9851  0.9061
 1219SOL    HW2 3477   0.511   3.439   3.710 -0.2490  0.4920 -1.1354
 1220SOL     OW 3478   1.619   2.515   4.891 -0.0464 -0.6504  0.2447
 1220SOL    HW1 3479   1.558   2.440   4.865  0.3068 -0.2820 -1.8163
 1220SOL    HW2 3480   1.639   2.509   4.989 -1.7444 -1.9583  0.5621
 1221SOL     OW 3481   0.405   1.428   2.778  0.2115 -0.3777  0.0067
 1221SOL    HW1 3482   0.343   1.492   2.734 -0.6935 -0.0485  1.6935
 1221SOL    HW2 3483   0.360   1.385   2.856  1.3062 -1.9621 -0.1761
 1222SOL     OW 3484   1.296   3.963   4.263 -0.8694 -0.3764 -0.4070
 1222SOL    HW1 3485   1.217   3.982   4.322 -0.3809 -1.8808  0.7978
 1222SOL    HW2 3486   1.268   3.900   4.191 -1.0045 -0.0827 -0.6146
 1223SOL     OW 3487   1.146   2.865   4.753 -0.1198  0.8306 -0.6687
 1223SOL    HW1 3488   1.207   2.786   4.759 -0.5141  0.5256 -0.5841
 1223SOL    HW2 3489   1.172   2.934   4.820 -1.8649 -0.7020  1.7728
 1224SOL     OW 3490   1.286   1.850   0.109 -0.2225  0.2474 -0.5276
 1224SOL    HW1 3491   1.385   1.858   0.094 -0.0373  0.1266  0.5795
 1224SOL    HW2 3492   1.238   1.909   0.044  0.5832  0.4567 -0.9484
 1225SOL     OW 3493   0.781   3.470   1.208 -0.7206 -0.1354 -0.3806
 1225SOL    HW1 3494   0.720   3.401   1.168 -1.7130  0.6013 -0.1870
 1225SOL    HW2 3495   0.864   3.478   1.153 -2.0479  0.8608 -2.3411
 1226SOL     OW 3496   0.910   3.089   0.480 -0.3920 -0.1031 -0.3254
 1226SOL    HW1 3497   0.981   3.018   0.476 -2.1632 -1.9165 -0.9220
 1226SOL    HW2 3498   0.891   3.112   0.576  1.1500  0.6424 -0.1547
 1227SOL     OW 3499   0.101   1.204   4.580  0.5113  0.6224 -0.2330
 1227SOL    HW1 3500   0.187   1.197   4.529  1.3547 -1.4652  1.3282
 1227SOL    HW2 3501   0.120   1.217   4.677 -1.0512  3.3104 -0.1747
 1228SOL     OW 3502   1.261   2.148   4.732 -0.2327 -0.0870 -0.7439
 1228SOL    HW1 3503   1.290   2.181   4.642  0.4868 -1.4410 -1.0437
 1228SOL    HW2 3504   1.319   2.190   4.803  2.1426 -2.1890 -1.2845
 1229SOL     OW 3505   1.266   4.117   2.946 -0.2444  0.3480 -0.0708
 1229SOL    HW1 3506   1.247   4.209   2.980  0.5196  0.1243  0.9996
 1229SOL    HW2 3507   1.262   4.052   3.021  0.8755 -0.2542 -0.5090
 1230SOL     OW 3508   0.991   3.738   4.968  0.2279  0.1606 -0.3863
 1230SOL    HW1 3509   0.924   3.676   4.927 -0.5435  0.2580  0.6931
 1230SOL    HW2 3510   1.002   3.715   5.065 -0.9311  2.4073  0.3407
 1231SOL     OW 3511   5.027   3.922   4.339 -0.4747  0.7721 -0.1290
 1231SOL    HW1 3512   5.117   3.880   4.324  0.3741  2.5087 -0.1531
 1231SOL    HW2 3513   4.979   3.928   4.251  0.0150  1.1922 -0.3756
 1232SOL     OW 3514   1.529   3.668   4.301  0.1446 -0.2598 -0.3190
 1232SOL    HW1 3515   1.491   3.704   4.386  3.2754  0.2026  1.0235
 1232SOL    HW2 3516   1.521   3.569   4.300 -0.7923 -0.1984  0.0214
 1233SOL     OW 3517   1.270   3.765   4.055  0.0640 -0.0697 -0.1195
 1233SOL    HW1 3518   1.283   3.667   4.038 -0.7810 -0.0035 -1.2632
 1233SOL    HW2 3519   1.337   3.816   4.001  1.3491 -0.0144  1.4283
 1234SOL     OW 3520   3.067   2.769   0.502  0.1744  0.2250 -0.1324
 1234SOL    HW1 3521   3.101   2.857   0.538  0.1325 -0.0057  0.4880
 1234SOL    HW2 3522   3.120   2.694   0.541  1.6211  0.0526 -2.2750
 1235SOL     OW 3523   2.520   3.510   4.346 -0.4742  0.5901 -0.2136
 1235SOL    HW1 3524   2.556   3.587   4.399  0.0495 -0.5024  1.0594
 1235SOL    HW2 3525   2.566   3.506   4.258  0.7963  0.6707  0.4263
 1236SOL     OW 3526   2.410   2.801   0.282  0.5061 -0.2634  0.5452
 1236SOL    HW1 3527   2.365   2.823   0.368 -2.4809 -0.7550 -0.7839
 1236SOL    HW2 3528   2.444   2.707   0.285 -0.0504 -0.4513  1.0285
 1237SOL     OW 3529   0.730   0.732   4.132 -0.3498 -0.3594  0.0950
 1237SOL    HW1 3530   0.646   0.691   4.096 -1.2848  2.8922 -1.9212
 1237SOL    HW2 3531   0.729   0.729   4.232 -1.4449 -2.8540  0.0932
 1238SOL     OW 3532   0.596   3.072   0.708  0.6552 -0.4059  0.0530
 1238SOL    HW1 3533   0.513   3.040   0.754 -0.0864 -0.0065 -0.9592
 1238SOL    HW2 3534   0.616   3.013   0.630  0.0087  0.7663 -1.0537
 1239SOL     OW 3535   0.309   3.170   3.717  0.1911 -0.4870 -0.5901
 1239SOL    HW1 3536   0.354   3.090   3.755  0.5120  1.4364  3.6741
 1239SOL    HW2 3537   0.370   3.216   3.653  2.2002 -0.8088  1.0065
 1240SOL     OW 3538   1.925   3.555   4.577  0.4175 -0.1698  0.4625
 1240SOL    HW1 3539   1.992   3.617   4.535 -0.8462  0.6020 -0.4753
 1240SOL    HW2 3540   1.910   3.581   4.672  1.3334 -0.2558  0.6366
 1241SOL     OW 3541   0.728   3.132   3.647 -0.6389  0.1009 -0.7137
 1241SOL    HW1 3542   0.680   3.086   3.572  0.0110 -0.2223 -0.9379
 1241SOL    HW2 3543   0.798   3.071   3.684 -1.8339 -0.2873  1.0754
 1242SOL     OW 3544   3.618   3.378   2.948 -0.6995  0.2669  0.2195
 1242SOL    HW1 3545   3.623   3.374   2.849 -1.1556  1.4143  0.1298
 1242SOL    HW2 3546   3.637   3.472   2.978 -0.1881 -0.1462  1.2444
 1243SOL     OW 3547   0.209   4.309   4.772  0.1525 -0.2050  0.3143
 1243SOL    HW1 3548   0.251   4.382   4.719  0.8918 -0.2473  0.8193
 1243SOL    HW2 3549   0.220   4.222   4.725 -0.8194  0.0101 -0.3377
 1244SOL     OW 3550   1.502   1.409   2.693 -0.2938 -0.3071  0.0339
 1244SOL    HW1 3551   1.440   1.481   2.664  1.0750  0.9949  0.1863
 1244SOL    HW2 3552   1.507   1.406   2.793 -1.3440 -1.5324  0.0719
 1245SOL     OW 3553   4.072   3.188   3.797 -0.2313 -0.3877 -0.2165
 1245SOL    HW1 3554   4.077   3.288   3.793 -1.7998 -0.1250  2.1914
 1245SOL    HW2 3555   3.985   3.158   3.756  0.3221 -0.8072 -1.1038
 1246SOL     OW 3556   0.652   1.095   0.734 -0.0678  0.0809  0.0206
 1246SOL    HW1 3557   0.729   1.097   0.672 -1.4630 -1.3685 -1.8920
 1246SOL    HW2 3558   0.684   1.081   0.828  1.9456 -1.0812 -0.7984
 1247SOL     OW 3559   1.659   2.909   3.515  0.1063 -0.4902  0.0908
 1247SOL    HW1 3560   1.630   2.870   3.427  2.3008  0.0878 -0.9703
 1247SOL    HW2 3561   1.642   2.844   3.588  0.2649 -1.9290 -1.1032
 1248SOL     OW 3562   4.548   0.887   4.015  0.4904 -0.1587 -0.2692
 1248SOL    HW1 3563   4.465   0.941   4.002 -0.7384 -1.5219  1.5347
 1248SOL    HW2 3564   4.526   0.790   4.011  1.8448 -0.5533  1.0031
 1249SOL     OW 3565   4.209   1.788   2.760  0.2395 -0.2731 -0.7989
 1249SOL    HW1 3566   4.215   1.800   2.859 -2.1470  1.3809 -0.7707
 1249SOL    HW2 3567   4.162   1.702   2.740  1.5569 -1.0736 -0.5549
 1250SOL     OW 3568   4.661   2.875   3.679  0.3209 -0.1390 -0.4484
 1250SOL    HW1 3569   4.745   2.917   3.646 -0.3642  0.6944 -1.2060
 1250SOL    HW2 3570   4.606   2.845   3.602 -0.4745  0.1448 -0.0130
 1251SOL     OW 3571   2.528   2.601   3.886  0.2276 -0.4304  0.4355
 1251SOL    HW1 3572   2.452   2.658   3.855 -0.6825 -2.0772 -0.4691
 1251SOL    HW2 3573   2.493   2.518   3.929  1.4797 -1.6121 -0.7235
 1252SOL     OW 3574   2.808   2.980   4.633  0.8319  0.1707 -0.5107
 1252SOL    HW1 3575   2.798   2.886   4.600  2.0612  0.4737 -1.8441
 1252SOL    HW2 3576   2.737   3.037   4.593 -1.1767 -0.5024  1.8491
 1253SOL     OW 3577   2.975   2.078   1.389 -0.1658 -0.3189  0.1592
 1253SOL    HW1 3578   2.926   2.159   1.421  0.9718 -0.1683  1.6465
 1253SOL    HW2 3579   3.063   2.104   1.352 -0.3652 -0.7670 -0.6544
 1254SOL     OW 3580   2.349   4.630   3.824 -0.3834  0.0966  0.0663
 1254SOL    HW1 3581   2.290   4.575   3.765 -2.2894  1.1625  0.8889
 1254SOL    HW2 3582   2.350   4.725   3.793 -0.9420  0.5537  1.3776
 1255SOL     OW 3583   0.753   3.133   4.120  0.1207 -0.0804 -0.2924
 1255SOL    HW1 3584   0.796   3.201   4.180  0.1772 -0.2989 -0.0866
 1255SOL    HW2 3585   0.694   3.074   4.174 -1.8257  1.2891 -0.8029
 1256SOL     OW 3586   0.535   3.016   4.508 -0.6546  0.1802 -0.4267
 1256SOL    HW1 3587   0.436   3.024   4.499 -0.6933 -0.5394 -0.7923
 1256SOL    HW2 3588   0.560   2.919   4.504  0.0830  0.3755 -0.5844
 1257SOL     OW 3589   1.535   3.594   2.746 -0.1337 -0.6751 -0.2580
 1257SOL    HW1 3590   1.540   3.634   2.837  1.7109 -0.7751 -0.2674
 1257SOL    HW2 3591   1.473   3.647   2.689  0.4251  0.7485  0.4143
 1258SOL     OW 3592   0.034   4.819   4.761  0.2071 -0.0136 -0.4509
 1258SOL    HW1 3593  -0.066   4.816   4.770  0.2175 -1.9121 -0.6800
 1258SOL    HW2 3594   0.058   4.862   4.674 -0.4997 -1.4705 -1.4134
 1259SOL     OW 3595   0.973   3.079   3.972  0.0071  0.7978 -0.0538
 1259SOL    HW1 3596   0.960   3.048   3.878 -1.4375  2.0037 -0.3039
 1259SOL    HW2 3597   0.886   3.117   4.006  1.6921  5.3672 -0.1355
 1260SOL     OW 3598   4.658   2.045   2.749  0.3723  0.2346  0.2317
 1260SOL    HW1 3599   4.635   2.077   2.658  1.2655 -0.4394 -0.2407
 1260SOL    HW2 3600   4.722   2.108   2.792  0.7820 -0.0017 -0.0266
 1261SOL     OW 3601   1.430   1.732   0.484 -0.1827  0.8233 -0.1358
 1261SOL    HW1 3602   1.509   1.726   0.545 -1.0076 -1.5542  0.8103
 1261SOL    HW2 3603   1.438   1.661   0.413 -0.8304  1.4525 -0.8601
 1262SOL     OW 3604   1.439   4.086   1.889  0.1703 -0.9507 -0.0944
 1262SOL    HW1 3605   1.458   4.139   1.806  0.3467  1.2448  1.2837
 1262SOL    HW2 3606   1.358   4.029   1.873 -1.1635  1.0806 -1.1197
 1263SOL     OW 3607   0.378   1.154   4.928 -0.4881 -0.3465 -0.0253
 1263SOL    HW1 3608   0.420   1.193   4.846  0.1253  0.1208  0.5036
 1263SOL    HW2 3609   0.410   1.060   4.941  0.6638  0.0971  0.5326
 1264SOL     OW 3610   0.868   0.837   4.627  0.3213 -0.1953 -0.5443
 1264SOL    HW1 3611   0.965   0.862   4.634 -0.1817  1.9049 -0.4295
 1264SOL    HW2 3612   0.818   0.875   4.705 -0.4525 -2.2510  0.0289
 1265SOL     OW 3613   2.966   2.349   3.571  0.6056  0.0583 -0.6607
 1265SOL    HW1 3614   2.894   2.357   3.501 -0.0071  2.1417  0.1262
 1265SOL    HW2 3615   2.935   2.287   3.643  0.3369 -0.4025 -1.1576
 1266SOL     OW 3616   1.709   3.411   3.503 -0.0587  0.0871 -0.1978
 1266SOL    HW1 3617   1.642   3.345   3.537 -0.0360  0.6267  0.9126
 1266SOL    HW2 3618   1.784   3.362   3.457 -0.0152 -0.6685  0.6613
 1267SOL     OW 3619   3.175   1.571   0.103 -0.1890  0.3740  0.6358
 1267SOL    HW1 3620   3.250   1.511   0.075 -0.3008  1.1038 -1.3106
 1267SOL    HW2 3621   3.204   1.666   0.095 -1.1892  0.6500  0.2536
 1268SOL     OW 3622   4.814   1.410   4.844 -0.1098 -0.0046 -0.3175
 1268SOL    HW1 3623   4.846   1.495   4.888  2.1444 -0.4396 -0.9743
 1268SOL    HW2 3624   4.758   1.433   4.764 -0.0262  0.8474 -0.1462
 1269SOL     OW 3625   0.154   3.587   4.110 -0.3144  0.2200 -0.3922
 1269SOL    HW1 3626   0.181   3.630   4.024 -1.9591 -0.5625 -1.3485
 1269SOL    HW2 3627   0.166   3.488   4.103 -0.7727  0.1200  0.1769
 1270SOL     OW 3628   3.062   1.105   3.646  0.1967  0.0848  0.1921
 1270SOL    HW1 3629   2.975   1.144   3.616  0.9499 -0.1822 -2.6266
 1270SOL    HW2 3630   3.075   1.016   3.601  3.4473  1.6861 -2.4502
 1271SOL     OW 3631   1.040   1.668   3.194  0.1091  0.1429 -0.3102
 1271SOL    HW1 3632   1.031   1.655   3.096 -0.6196  0.0068 -0.2329
 1271SOL    HW2 3633   1.103   1.599   3.231 -0.0288 -0.1473 -0.6044
 1272SOL     OW 3634   1.179   1.230   4.807 -0.4331 -0.0066  0.3002
 1272SOL    HW1 3635   1.102   1.177   4.842 -1.2863  0.4719 -0.7852
 1272SOL    HW2 3636   1.221   1.181   4.730 -0.7258  0.5164 -0.1967
 1273SOL     OW 3637   4.660   3.458   4.200 -0.0489 -0.2885  0.1853
 1273SOL    HW1 3638   4.643   3.556   4.208  1.3034 -0.0185 -0.0552
 1273SOL    HW2 3639   4.738   3.442   4.140  1.8892 -1.3199  2.8167
 1274SOL     OW 3640   0.006   3.791   4.802  0.5719  0.0885  0.3350
 1274SOL    HW1 3641  -0.091   3.774   4.823 -0.2711  0.5779 -2.6762
 1274SOL    HW2 3642   0.036   3.874   4.850 -1.3074  1.3948 -0.6202
 1275SOL     OW 3643   0.550   3.695   4.025  0.1929  0.4130  0.2153
 1275SOL    HW1 3644   0.567   3.791   4.046  0.0696  0.4826 -0.0029
 1275SOL    HW2 3645   0.523   3.647   4.109 -1.1013  0.8654  0.0713
 1276SOL     OW 3646   3.643   4.658   0.079 -0.2850  0.1821 -0.1025
 1276SOL    HW1 3647   3.617   4.720   0.004  0.4949 -0.0152 -0.5465
 1276SOL    HW2 3648   3.669   4.711   0.159  1.2706  0.4877 -0.7687
 1277SOL     OW 3649   0.205   0.417   1.384  0.3068 -0.8886  0.5786
 1277SOL    HW1 3650   0.285   0.402   1.325 -0.0709 -0.5479 -0.0266
 1277SOL    HW2 3651   0.179   0.513   1.382 -2.0173 -1.4631 -1.7417
 1278SOL     OW 3652   4.220   4.902   4.876  0.1151  0.1534 -0.1517
 1278SOL    HW1 3653   4.124   4.879   4.892  0.1035  0.4857  0.2819
 1278SOL    HW2 3654   4.226   4.986   4.823  0.1543 -0.9664 -1.9975
 1279SOL     OW 3655   1.288   1.940   0.919 -0.1843  0.0337 -0.3725
 1279SOL    HW1 3656   1.262   2.029   0.957  0.2594  0.1410 -0.3114
 1279SOL    HW2 3657   1.281   1.870   0.991 -2.1261 -0.2976 -0.8272
 1280SOL     OW 3658   3.008   0.749   1.357  0.3383  0.2287  0.7617
 1280SOL    HW1 3659   2.983   0.824   1.419 -1.9534  0.2808 -0.1038
 1280SOL    HW2 3660   2.998   0.780   1.262 -1.2166 -1.2835  0.3825
 1281SOL     OW 3661   1.686   0.209   4.818 -0.0225 -0.0667 -0.3576
 1281SOL    HW1 3662   1.632   0.252   4.891 -0.0491  0.6423 -0.7888
 1281SOL    HW2 3663   1.777   0.189   4.852  0.0499  0.5046 -0.1954
 1282SOL     OW 3664   0.844   4.643   1.985  0.0396 -0.0971 -0.2377
 1282SOL    HW1 3665   0.789   4.591   2.050  1.1633  0.5990  1.3365
 1282SOL    HW2 3666   0.918   4.690   2.033  1.3729 -0.1191 -2.1124
 1283SOL     OW 3667   0.690   3.516   2.239  0.4425  0.0919 -0.1843
 1283SOL    HW1 3668   0.638   3.440   2.200  0.6773 -0.0802 -0.1638
 1283SOL    HW2 3669   0.650   3.603   2.208 -0.1955 -0.0305  0.2817
 1284SOL     OW 3670   1.149   3.888   0.340  0.4203 -0.3460 -0.5931
 1284SOL    HW1 3671   1.171   3.794   0.314 -0.0930 -0.8965  0.8224
 1284SOL    HW2 3672   1.051   3.903   0.331 -0.2664 -1.3965  3.1354
 1285SOL     OW 3673   1.703   0.385   2.418 -0.3919 -0.0778 -0.2866
 1285SOL    HW1 3674   1.794   0.344   2.418 -0.8967 -1.2346 -0.4348
 1285SOL    HW2 3675   1.706   0.472   2.468  0.4836 -0.8260  1.0447
 1286SOL     OW 3676   4.470   0.701   1.765 -0.6843 -0.2866 -0.2028
 1286SOL    HW1 3677   4.481   0.639   1.842 -0.2388  0.7331  0.5754
 1286SOL    HW2 3678   4.415   0.656   1.694 -1.6192 -1.0291  0.9470
 1287SOL     OW 3679   4.282   0.130   2.244  0.2969  0.3553  0.3471
 1287SOL    HW1 3680   4.334   0.063   2.297  0.0005  0.7905  1.2063
 1287SOL    HW2 3681   4.256   0.090   2.156  0.2529 -0.5980  0.7849
 1288SOL     OW 3682   2.076   2.687   0.331 -0.6383 -0.0531 -0.0988
 1288SOL    HW1 3683   2.035   2.733   0.252 -0.8140  0.3955  0.2531
 1288SOL    HW2 3684   2.155   2.738   0.362 -0.2960 -0.4747 -0.2591
 1289SOL     OW 3685   1.480   0.097   2.205 -0.8090 -0.2368  0.3041
 1289SOL    HW1 3686   1.402   0.144   2.164  0.4606  1.0097 -0.8061
 1289SOL    HW2 3687   1.498   0.136   2.295  0.5892  2.0037 -0.8304
 1290SOL     OW 3688   0.842   4.992   0.748 -0.0787  0.4302 -0.1974
 1290SOL    HW1 3689   0.770   4.959   0.809  0.1672 -0.8148 -0.5538
 1290SOL    HW2 3690   0.828   4.955   0.656  0.0369  1.6052 -0.7013
 1291SOL     OW 3691   2.440   3.999   1.201  0.4783  0.2316  1.0967
 1291SOL    HW1 3692   2.347   4.037   1.206  0.5603  0.3445  2.1262
 1291SOL    HW2 3693   2.452   3.932   1.275  1.0098 -0.2672  0.5649
 1292SOL     OW 3694   0.226   4.818   4.970 -0.1366 -0.1183 -0.0515
 1292SOL    HW1 3695   0.159   4.819   4.895 -0.2437 -1.0397  0.0219
 1292SOL    HW2 3696   0.246   4.912   4.999 -0.2760  0.2359 -1.0737
 1293SOL     OW 3697   2.204   0.277   1.839 -0.0171 -0.0722  0.4470
 1293SOL    HW1 3698   2.212   0.181   1.865 -0.0378 -0.3263 -0.4766
 1293SOL    HW2 3699   2.295   0.317   1.827 -0.0130 -0.0642  0.5038
 1294SOL     OW 3700   4.879   0.451   0.717 -0.0446  0.2454 -0.0120
 1294SOL    HW1 3701   4.859   0.353   0.723  1.0587 -0.0490 -0.7783
 1294SOL    HW2 3702   4.957   0.473   0.775 -0.9678  0.9063  1.0249
 1295SOL     OW 3703   1.109   1.678   1.163 -0.7482  0.1113 -0.4860
 1295SOL    HW1 3704   1.088   1.617   1.086 -0.5775  0.7872 -1.0747
 1295SOL    HW2 3705   1.025   1.720   1.196 -0.4968  2.1754 -2.3048
 1296SOL     OW 3706   1.920   4.290   1.700 -0.5900 -0.5746  0.1166
 1296SOL    HW1 3707   1.983   4.311   1.625 -0.9357 -3.3948 -1.0791
 1296SOL    HW2 3708   1.966   4.234   1.769 -0.2642  2.0174  2.1595
 1297SOL     OW 3709   1.745   3.808   2.223 -0.0289 -0.0734 -0.0597
 1297SOL    HW1 3710   1.660   3.837   2.268 -0.7271 -2.0667  0.0045
 1297SOL    HW2 3711   1.740   3.710   2.203  1.6925  0.0693 -1.3681
 1298SOL     OW 3712   1.242   0.669   2.413 -0.3030  0.4557 -0.0176
 1298SOL    HW1 3713   1.309   0.743   2.417 -1.9726  2.0392  0.1573
 1298SOL    HW2 3714   1.163   0.693   2.469  0.0940 -2.5765  2.0723
 1299SOL     OW 3715   1.818   3.621   1.177  0.2456  0.0802  0.0175
 1299SOL    HW1 3716   1.884   3.636   1.104  0.8334  0.3724  0.6036
 1299SOL    HW2 3717   1.861   3.571   1.252 -0.1449  0.4351  0.4837
 1300SOL     OW 3718   4.331   4.703   2.353  0.0997 -0.5099 -0.0619
 1300SOL    HW1 3719   4.311   4.679   2.449  1.9668 -1.3566  0.1677
 1300SOL    HW2 3720   4.335   4.619   2.299  1.3200 -0.2643 -0.3878
 1301SOL     OW 3721   2.067   0.287   4.619 -0.0745  0.0332 -0.1627
 1301SOL    HW1 3722   2.092   0.353   4.548 -0.5881 -1.2149 -1.5680
 1301SOL    HW2 3723   2.083   0.194   4.585 -1.2413 -0.6302  0.9967
 1302SOL     OW 3724   3.354   2.074   0.289 -0.1540 -0.0722 -0.8975
 1302SOL    HW1 3725   3.341   2.065   0.388  1.4880  0.2064 -0.6273
 1302SOL    HW2 3726   3.295   2.147   0.254 -0.5048  0.0568 -0.0597
 1303SOL     OW 3727   4.735   3.904   0.059 -0.0687 -0.2464  0.1169
 1303SOL    HW1 3728   4.678   3.827   0.033 -1.0629  1.0440 -1.8004
 1303SOL    HW2 3729   4.682   3.966   0.117 -0.4127  0.5476 -0.9997
 1304SOL     OW 3730   1.002   4.359   1.458  0.5123 -0.0074 -0.3560
 1304SOL    HW1 3731   1.092   4.321   1.440  0.4839 -1.5655  2.4018
 1304SOL    HW2 3732   0.932   4.291   1.436  0.1055  0.4803 -0.5997
 1305SOL     OW 3733   2.527   3.078   1.314  0.7486  0.1833  0.0074
 1305SOL    HW1 3734   2.623   3.079   1.285  0.3305  1.1205 -1.4800
 1305SOL    HW2 3735   2.487   2.989   1.294  1.3037 -0.2253  0.6620
 1306SOL     OW 3736   2.354   4.348   3.436  0.2405  0.1741  0.0237
 1306SOL    HW1 3737   2.448   4.314   3.447  0.6306  1.0392 -0.5546
 1306SOL    HW2 3738   2.356   4.442   3.402 -0.8484 -0.2090 -1.1647
 1307SOL     OW 3739   4.590   0.357   0.868 -0.5748  0.0158 -0.0911
 1307SOL    HW1 3740   4.676   0.311   0.845  0.3569  1.8122 -0.4427
 1307SOL    HW2 3741   4.515   0.291   0.867  0.6636 -1.4478 -0.5845
 1308SOL     OW 3742   4.856   4.618   0.675 -0.2940 -0.8953 -0.0764
 1308SOL    HW1 3743   4.886   4.703   0.719 -0.2999 -0.1406 -1.4838
 1308SOL    HW2 3744   4.931   4.578   0.623  0.0633 -2.4245  1.4968
 1309SOL     OW 3745   4.575   0.329   3.957  0.0207  0.5986  0.1993
 1309SOL    HW1 3746   4.526   0.246   3.984  0.1071  0.4350 -0.1455
 1309SOL    HW2 3747   4.523   0.410   3.986 -0.3940  0.4258 -0.0615
 1310SOL     OW 3748   3.546   0.275   4.503 -0.3025  0.2011 -0.2979
 1310SOL    HW1 3749   3.497   0.190   4.484  0.9079 -0.4463 -0.6441
 1310SOL    HW2 3750   3.566   0.323   4.417  1.4593 -0.5979 -0.3778
 1311SOL     OW 3751   2.119   3.734   4.515  0.0331  0.1690  0.5022
 1311SOL    HW1 3752   2.170   3.678   4.449 -0.2117 -1.3763  1.5907
 1311SOL    HW2 3753   2.158   3.827   4.516 -1.6067  1.1498 -3.7457
 1312SOL     OW 3754   0.824   0.423   1.803 -0.0659  0.5737  0.1638
 1312SOL    HW1 3755   0.889   0.498   1.795 -0.1754  0.6304 -0.2259
 1312SOL    HW2 3756   0.825   0.370   1.718 -0.0187  0.1601  0.4232
 1313SOL     OW 3757   2.223   3.813   0.086 -0.1883  0.2936  0.0734
 1313SOL    HW1 3758   2.210   3.760   0.170  0.4645  1.0408  0.6606
 1313SOL    HW2 3759   2.157   3.888   0.084 -0.1301  0.3418 -0.0209
 1314SOL     OW 3760   1.429   2.909   0.233 -0.2641  0.0519  0.6561
 1314SOL    HW1 3761   1.392   2.850   0.161  0.0913 -0.5327  0.9392
 1314SOL    HW2 3762   1.430   2.859   0.319  1.4881 -0.0991  0.5914
 1315SOL     OW 3763   4.813   4.848   1.322 -0.0955  0.4579 -0.1486
 1315SOL    HW1 3764   4.840   4.785   1.248 -1.3295 -0.1276 -0.1247
 1315SOL    HW2 3765   4.842   4.941   1.298  1.2272 -0.0026 -0.4663
 1316SOL     OW 3766   0.749   4.592   1.720 -0.2035  0.1932 -0.3168
 1316SOL    HW1 3767   0.814   4.655   1.677 -0.4466 -0.0832 -1.1008
 1316SOL    HW2 3768   0.763   4.593   1.819  1.2250 -0.1004 -0.4869
 1317SOL     OW 3769   0.389   3.688   1.033  0.4161  0.3509  0.3353
 1317SOL    HW1 3770   0.412   3.658   0.940 -0.5963 -0.0430  0.1898
 1317SOL    HW2 3771   0.472   3.694   1.088  0.9000 -0.6265 -0.2545
 1318SOL     OW 3772   1.871   0.792   4.078  0.3195 -0.4283  0.1690
 1318SOL    HW1 3773   1.773   0.776   4.076  0.3873 -0.7703 -0.8779
 1318SOL    HW2 3774   1.913   0.732   4.146 -0.2109 -0.0906  0.8155
 1319SOL     OW 3775   0.933   1.662   0.663  0.0806  0.0718 -0.4761
 1319SOL    HW1 3776   0.848   1.625   0.624 -0.8829 -0.5407  2.0283
 1319SOL    HW2 3777   0.912   1.710   0.748  2.1134  1.0960 -0.5097
 1320SOL     OW 3778   0.682   4.736   0.874  0.2735 -0.4521  0.2042
 1320SOL    HW1 3779   0.781   4.742   0.888  0.3474 -1.9375  0.5228
 1320SOL    HW2 3780   0.637   4.727   0.963 -0.1643  0.3589  0.0692
 1321SOL     OW 3781   0.789   3.379   2.488  0.3098 -0.1078  0.3825
 1321SOL    HW1 3782   0.774   3.414   2.395  1.4365  0.7472  0.4938
 1321SOL    HW2 3783   0.755   3.446   2.554 -2.5217 -1.6751  0.6332
 1322SOL     OW 3784   0.919   0.095   1.351 -0.1551 -0.0123 -0.3620
 1322SOL    HW1 3785   0.955   0.150   1.275 -1.8899  1.0483 -0.4721
 1322SOL    HW2 3786   0.841   0.041   1.319 -2.0117  1.7395  0.9950
 1323SOL     OW 3787   4.827   4.498   4.921 -0.1708 -0.1635 -0.1086
 1323SOL    HW1 3788   4.896   4.453   4.978 -1.2834 -1.4936  0.2539
 1323SOL    HW2 3789   4.852   4.593   4.907  0.8905 -0.1849  1.3942
 1324SOL     OW 3790   1.855   0.831   2.002  0.4764 -0.0260  0.0773
 1324SOL    HW1 3791   1.900   0.764   1.943 -1.7941 -1.4244 -0.1885
 1324SOL    HW2 3792   1.923   0.876   2.060  2.0878 -3.1456  0.8355
 1325SOL     OW 3793   1.314   0.186   0.146 -0.3393  0.0607  0.6993
 1325SOL    HW1 3794   1.306   0.208   0.243 -0.9268 -0.9862  0.9139
 1325SOL    HW2 3795   1.324   0.087   0.135 -2.0574 -0.0533 -0.3621
 1326SOL     OW 3796   1.895   0.133   0.948  0.4187 -0.4650 -0.2559
 1326SOL    HW1 3797   1.955   0.064   0.905  0.5465 -0.1783 -0.5473
 1326SOL    HW2 3798   1.830   0.088   1.009  0.9927 -0.7748  0.1347
 1327SOL     OW 3799   2.568   4.563   2.716 -0.2843  0.5499  0.5832
 1327SOL    HW1 3800   2.606   4.625   2.647  0.1431  0.3747  0.6617
 1327SOL    HW2 3801   2.555   4.612   2.802 -0.3949  0.6541  0.5071
 1328SOL     OW 3802   4.842   4.649   4.109 -1.0297 -0.3342 -0.3740
 1328SOL    HW1 3803   4.914   4.717   4.124 -0.7977 -0.4291 -1.0001
 1328SOL    HW2 3804   4.814   4.609   4.196  2.6843 -3.3813 -0.3256
 1329SOL     OW 3805   0.450   2.990   2.753 -0.1539  0.1887 -0.1468
 1329SOL    HW1 3806   0.493   2.914   2.705 -0.9352 -0.5953  0.3771
 1329SOL    HW2 3807   0.422   3.060   2.687  0.7414  0.1225 -0.6094
 1330SOL     OW 3808   0.897   4.739   2.473  0.3718 -0.2680 -0.0341
 1330SOL    HW1 3809   0.929   4.646   2.489 -1.2015 -1.1452 -1.5504
 1330SOL    HW2 3810   0.801   4.746   2.501  1.0414  1.5629  2.1027
 1331SOL     OW 3811   1.012   0.812   0.231 -0.0493  0.3769 -0.6765
 1331SOL    HW1 3812   1.006   0.800   0.330  1.0638  1.0900 -0.5160
 1331SOL    HW2 3813   1.000   0.908   0.208  0.2278  0.2871 -1.2012
 1332SOL     OW 3814   4.512   4.591   1.820 -0.9404  0.3304  0.0379
 1332SOL    HW1 3815   4.503   4.494   1.798 -1.1055  0.4115 -0.2577
 1332SOL    HW2 3816   4.431   4.640   1.788 -0.2026  0.8097 -1.1892
 1333SOL     OW 3817   5.005   4.697   1.511 -0.6064  0.1285  0.1164
 1333SOL    HW1 3818   4.942   4.751   1.456 -1.0570  3.4367  3.4483
 1333SOL    HW2 3819   4.954   4.643   1.578  0.0153 -0.5696  0.0461
 1334SOL     OW 3820   4.058   4.863   0.143  0.2434  0.3453  0.0885
 1334SOL    HW1 3821   4.024   4.771   0.160 -0.5629  0.4732 -0.7543
 1334SOL    HW2 3822   3.990   4.915   0.092  1.2228  0.9806 -0.6134
 1335SOL     OW 3823   0.436   0.069   3.362 -0.0483 -0.1388  0.2916
 1335SOL    HW1 3824   0.448  -0.023   3.326  0.2119 -0.1621  0.4320
 1335SOL    HW2 3825   0.355   0.072   3.420  0.8031 -0.6779  1.5553
 1336SOL     OW 3826   1.721   3.736   0.394 -0.1522 -0.4955  0.5803
 1336SOL    HW1 3827   1.782   3.749   0.472  1.9390 -1.1911 -0.8483
 1336SOL    HW2 3828   1.669   3.819   0.378  1.7212  0.7934  0.8451
 1337SOL     OW 3829   1.285   4.417   0.896  0.0079 -0.2382  0.1007
 1337SOL    HW1 3830   1.323   4.337   0.943  1.3214  0.4321  0.2249
 1337SOL    HW2 3831   1.316   4.501   0.942 -0.5271  0.3708 -0.6246
 1338SOL     OW 3832   4.274   0.412   2.356  0.2137  0.0965 -0.1982
 1338SOL    HW1 3833   4.267   0.323   2.312 -2.3894  0.5238 -0.8149
 1338SOL    HW2 3834   4.287   0.483   2.286 -0.2730  0.4347  0.0501
 1339SOL     OW 3835   0.465   3.931   0.745  0.5102  0.1263  0.2921
 1339SOL    HW1 3836   0.548   3.882   0.771  0.2560 -0.2314  0.4505
 1339SOL    HW2 3837   0.450   4.007   0.809  0.6928  0.1653  0.2885
 1340SOL     OW 3838   3.476   1.100   1.145  0.2252  0.5872  0.3141
 1340SOL    HW1 3839   3.536   1.060   1.076  0.1068  2.3321 -0.8305
 1340SOL    HW2 3840   3.480   1.199   1.140 -0.3338  0.7596  2.3661
 1341SOL     OW 3841   1.125   0.865   4.487  0.5430  0.4468  0.0559
 1341SOL    HW1 3842   1.071   0.916   4.420  0.9560 -0.2561 -0.8343
 1341SOL    HW2 3843   1.129   0.769   4.461  1.8942  0.4071  0.3156
 1342SOL     OW 3844   1.762   3.894   1.250 -0.5224  0.2733 -0.3045
 1342SOL    HW1 3845   1.795   3.803   1.224 -1.5475  0.2420 -1.6423
 1342SOL    HW2 3846   1.794   3.917   1.341  2.8753  0.1489 -1.3502
 1343SOL     OW 3847   0.935   3.651   0.828 -0.3356  1.3530  0.3762
 1343SOL    HW1 3848   0.981   3.646   0.917  0.0462  0.0444  0.1137
 1343SOL    HW2 3849   1.003   3.648   0.755 -0.7843 -0.1540 -0.0086
 1344SOL     OW 3850   2.928   1.692   2.458  0.1307 -0.0576  0.5217
 1344SOL    HW1 3851   2.882   1.699   2.370 -0.2795  1.2368  0.8111
 1344SOL    HW2 3852   3.018   1.734   2.453  0.2565 -0.3166  0.6155
 1345SOL     OW 3853   2.837   0.106   2.456 -0.5434  0.4295  0.7700
 1345SOL    HW1 3854   2.757   0.063   2.497  0.9123 -0.4000  2.9406
 1345SOL    HW2 3855   2.876   0.172   2.521  2.1119 -1.2440  1.0442
 1346SOL     OW 3856   0.856   0.374   2.075  0.1028  0.2997 -0.4299
 1346SOL    HW1 3857   0.929   0.441   2.089 -0.1532  1.2258 -2.9452
 1346SOL    HW2 3858   0.824   0.379   1.980 -2.6722 -0.6446  0.3535
 1347SOL     OW 3859   1.694   1.385   2.505  0.3749 -0.2283  0.1271
 1347SOL    HW1 3860   1.785   1.375   2.546 -0.0649  3.1181  2.3703
 1347SOL    HW2 3861   1.624   1.378   2.577 -0.9589 -0.2423 -1.1170
 1348SOL     OW 3862   1.421   4.823   0.559 -0.0963  0.0825 -0.5993
 1348SOL    HW1 3863   1.331   4.812   0.516  0.1322  0.5079 -1.1976
 1348SOL    HW2 3864   1.469   4.900   0.517  1.0014 -0.8194 -1.0653
 1349SOL     OW 3865   3.206   4.172   1.625 -0.3244  0.3830 -0.0711
 1349SOL    HW1 3866   3.196   4.162   1.526  1.5361 -1.4180 -0.1520
 1349SOL    HW2 3867   3.209   4.081   1.667  0.2499  1.0863  1.4696
 1350SOL     OW 3868   1.378   2.702   4.735  0.1407 -0.2444 -0.1597
 1350SOL    HW1 3869   1.434   2.725   4.814  1.6369  0.4356 -1.3751
 1350SOL    HW2 3870   1.339   2.611   4.747  1.0070 -0.4748  1.0040
 1351SOL     OW 3871   2.614   4.252   0.948  0.0506  0.2839 -0.2649
 1351SOL    HW1 3872   2.621   4.311   1.028 -1.2927  1.5428 -1.0180
 1351SOL    HW2 3873   2.518   4.226   0.934  0.3446 -0.3981 -1.1117
 1352SOL     OW 3874   1.883   1.574   1.932  0.6726  0.1765  0.1247
 1352SOL    HW1 3875   1.953   1.508   1.960  0.6522  0.0480 -0.1324
 1352SOL    HW2 3876   1.819   1.532   1.869  1.2993  0.7365 -0.9149
 1353SOL     OW 3877   1.797   4.847   1.165  0.1673  0.1270 -0.2876
 1353SOL    HW1 3878   1.753   4.893   1.242  3.2106 -0.7182  2.2159
 1353SOL    HW2 3879   1.764   4.753   1.159 -0.9343  0.5420 -0.7864
 1354SOL     OW 3880   0.536   2.739   4.515  0.1460 -0.4395  0.7958
 1354SOL    HW1 3881   0.451   2.695   4.486  0.1167  0.3453 -0.3888
 1354SOL    HW2 3882   0.614   2.691   4.473  0.0296  1.7690 -2.2588
 1355SOL     OW 3883   1.294   2.560   0.887  0.1203  0.4525  0.5102
 1355SOL    HW1 3884   1.365   2.521   0.946  1.7728  0.6360 -1.2800
 1355SOL    HW2 3885   1.304   2.525   0.794 -2.3369  0.2899  0.2378
 1356SOL     OW 3886   0.173   3.823   3.093  0.6284  0.2838  0.0098
 1356SOL    HW1 3887   0.097   3.886   3.077  0.4863  0.2972  0.7049
 1356SOL    HW2 3888   0.253   3.854   3.042  0.3788  0.6844 -0.1442
 1357SOL     OW 3889   1.043   1.832   1.723  0.4005 -0.2787  0.0218
 1357SOL    HW1 3890   1.054   1.886   1.806 -0.4886 -1.8052  1.2166
 1357SOL    HW2 3891   0.978   1.877   1.662  0.8286  0.7177  0.2846
 1358SOL     OW 3892   4.622   4.953   2.092 -0.5113  0.3605  0.4770
 1358SOL    HW1 3893   4.710   4.905   2.103 -0.8116 -0.0525  1.1134
 1358SOL    HW2 3894   4.634   5.029   2.029  0.6015  1.0422  1.4704
 1359SOL     OW 3895   1.363   3.589   1.038 -0.0670  0.5841 -0.0867
 1359SOL    HW1 3896   1.340   3.552   0.948  1.5566  1.0005 -0.7181
 1359SOL    HW2 3897   1.461   3.611   1.040  0.1367 -0.3297  2.1144
 1360SOL     OW 3898   0.231   4.991   0.881  0.3898  0.1971  0.3461
 1360SOL    HW1 3899   0.187   5.055   0.818  0.0412 -0.3857 -0.0129
 1360SOL    HW2 3900   0.316   5.032   0.916  1.3401  0.0134 -1.5730
 1361SOL     OW 3901   4.569   4.923   4.469 -0.3657  0.0342 -0.5028
 1361SOL    HW1 3902   4.542   5.019   4.470 -0.6516 -0.0481  0.4040
 1361SOL    HW2 3903   4.655   4.913   4.419  0.4725  0.9796  0.7110
 1362SOL     OW 3904   4.031   0.407   3.403 -0.1972 -0.0039  0.3673
 1362SOL    HW1 3905   4.021   0.395   3.304 -2.1825  1.5405  0.3264
 1362SOL    HW2 3906   4.044   0.317   3.446 -0.0034 -0.7618 -1.1990
 1363SOL     OW 3907   0.360   3.218   2.622  0.1759  0.2487 -0.4980
 1363SOL    HW1 3908   0.262   3.221   2.601  0.2228  1.9504 -0.6058
 1363SOL    HW2 3909   0.412   3.254   2.545  0.8135  0.3338 -0.0392
 1364SOL     OW 3910   4.180   1.311   1.434  0.0123 -0.1612  0.2752
 1364SOL    HW1 3911   4.147   1.251   1.506 -1.4578  1.0301  0.6389
 1364SOL    HW2 3912   4.166   1.268   1.344 -2.3871  0.1926  0.4287
 1365SOL     OW 3913   0.310   4.363   5.001  0.1798 -0.0323 -0.5959
 1365SOL    HW1 3914   0.261   4.344   4.916 -0.4936  1.3760 -0.5496
 1365SOL    HW2 3915   0.318   4.462   5.013  1.0974 -0.2294  0.5167
 1366SOL     OW 3916   2.072   3.585   0.613 -0.4315 -0.0598  0.3638
 1366SOL    HW1 3917   2.136   3.520   0.572 -1.8794 -0.4360 -1.4298
 1366SOL    HW2 3918   2.003   3.536   0.667 -0.0375  0.2287  1.1488
 1367SOL     OW 3919   1.589   3.253   3.291 -0.3343 -0.0142  0.2745
 1367SOL    HW1 3920   1.662   3.232   3.227 -1.2634  0.3813 -0.9599
 1367SOL    HW2 3921   1.574   3.352   3.294  0.5820  0.1164  2.1456
 1368SOL     OW 3922   0.591   4.665   1.138 -0.5600 -0.3792 -0.1818
 1368SOL    HW1 3923   0.559   4.759   1.151  1.4885  0.2086  1.0348
 1368SOL    HW2 3924   0.538   4.604   1.197 -0.7198  0.2943  0.3916
 1369SOL     OW 3925   3.209   4.926   3.360 -0.0429 -0.3245 -0.0478
 1369SOL    HW1 3926   3.170   5.000   3.416  0.0354 -1.4486  1.5637
 1369SOL    HW2 3927   3.236   4.963   3.271 -0.9229  1.3660  0.3318
 1370SOL     OW 3928   2.923   3.492   3.973 -0.3787 -0.1329  0.5915
 1370SOL    HW1 3929   2.920   3.529   3.880  0.3768  0.2441  0.7116
 1370SOL    HW2 3930   2.852   3.422   3.983  1.0982 -1.9793 -1.0424
 1371SOL     OW 3931   1.644   0.171   1.141 -0.0494 -0.3177 -0.8531
 1371SOL    HW1 3932   1.658   0.165   1.239  0.9409  0.1206 -0.9539
 1371SOL    HW2 3933   1.558   0.126   1.116 -1.5507  1.6253  0.5198
 1372SOL     OW 3934   0.003   4.981   0.372  0.3673 -0.0518  0.1359
 1372SOL    HW1 3935   0.044   4.923   0.443 -0.2456  0.1132  0.6320
 1372SOL    HW2 3936  -0.035   4.923   0.300  0.6203 -0.2303  0.1413
 1373SOL     OW 3937   2.116   0.144   0.453  0.2349  0.2010  0.7235
 1373SOL    HW1 3938   2.114   0.222   0.390 -0.4377 -0.3459  0.0387
 1373SOL    HW2 3939   2.027   0.098   0.451  1.4833 -2.3573 -1.1798
 1374SOL     OW 3940   0.182   2.773   0.996  0.0749 -0.2002 -0.0281
 1374SOL    HW1 3941   0.146   2.864   0.976  0.2613 -0.4402 -1.5605
 1374SOL    HW2 3942   0.123   2.728   1.064 -0.7248  0.5791 -0.1942
 1375SOL     OW 3943   1.570   2.495   1.266  0.1536  0.0181 -0.1574
 1375SOL    HW1 3944   1.550   2.425   1.335  0.0551  0.0468 -0.1569
 1375SOL    HW2 3945   1.485   2.539   1.237  0.2161  0.1386 -0.1580
 1376SOL     OW 3946   4.282   4.639   1.066  0.5381 -0.0536 -0.6046
 1376SOL    HW1 3947   4.279   4.613   0.969 -2.9214 -3.0052  0.0872
 1376SOL    HW2 3948   4.352   4.586   1.113  2.2290  1.3872 -1.3480
 1377SOL     OW 3949   1.389   3.397   0.481  0.2946  0.2314 -0.0289
 1377SOL    HW1 3950   1.362   3.493   0.493 -0.2528  0.2146 -0.9653
 1377SOL    HW2 3951   1.324   3.352   0.419  1.5502 -0.2597 -1.0392
 1378SOL     OW 3952   2.789   0.048   1.143  0.0037  0.5434 -0.0791
 1378SOL    HW1 3953   2.887   0.028   1.142  0.0523  0.7695 -1.7599
 1378SOL    HW2 3954   2.775   0.147   1.137 -0.3281  0.4779 -0.4367
 1379SOL     OW 3955   4.550   3.737   2.554  0.6999  0.3046  0.2157
 1379SOL    HW1 3956   4.471   3.681   2.578  0.9901 -0.1982  0.0174
 1379SOL    HW2 3957   4.634   3.682   2.564  1.0620  0.9409  0.8060
 1380SOL     OW 3958   2.470   3.180   2.020  0.5925 -0.5975 -0.0969
 1380SOL    HW1 3959   2.437   3.102   1.966  0.6523  0.9249 -2.4616
 1380SOL    HW2 3960   2.564   3.200   1.995 -0.0956  1.5529 -1.1973
 1381SOL     OW 3961   0.461   2.522   0.208 -0.7876  0.2097 -0.1586
 1381SOL    HW1 3962   0.380   2.468   0.184  0.0755 -1.3374  0.3043
 1381SOL    HW2 3963   0.466   2.602   0.148 -1.8660 -0.4484 -1.1745
 1382SOL     OW 3964   4.748   4.489   0.366  0.2120 -0.1953  0.2113
 1382SOL    HW1 3965   4.829   4.463   0.418 -0.5208 -0.2936  1.3559
 1382SOL    HW2 3966   4.734   4.588   0.372 -0.6509 -0.3623  1.4380
 1383SOL     OW 3967   0.469   3.703   1.887  0.0168 -0.0083 -0.3365
 1383SOL    HW1 3968   0.458   3.614   1.930  1.1920 -0.7457 -1.5022
 1383SOL    HW2 3969   0.382   3.753   1.892 -0.8691 -1.4852 -0.2898
 1384SOL     OW 3970   1.510   3.081   4.583  0.7055  0.1743  0.2201
 1384SOL    HW1 3971   1.569   3.021   4.529  2.5810  1.9751  0.1506
 1384SOL    HW2 3972   1.566   3.142   4.639 -1.0745  2.2264 -0.0888
 1385SOL     OW 3973   0.296   2.837   2.370  0.8145  0.4307 -0.4252
 1385SOL    HW1 3974   0.295   2.740   2.396 -0.1185  0.4561 -0.3275
 1385SOL    HW2 3975   0.388   2.874   2.384  0.4537  0.4102  2.7189
 1386SOL     OW 3976   1.206   4.241   0.694 -0.0858  0.2514 -0.1590
 1386SOL    HW1 3977   1.233   4.317   0.753 -3.0463 -0.0726  1.8891
 1386SOL    HW2 3978   1.286   4.204   0.647  2.2692  1.4754  2.5823
 1387SOL     OW 3979   1.752   0.279   0.572 -0.3892  0.0045 -0.3999
 1387SOL    HW1 3980   1.685   0.323   0.512  0.8560 -0.1133 -1.9385
 1387SOL    HW2 3981   1.715   0.274   0.665 -2.3255  0.3226 -1.1040
 1388SOL     OW 3982   0.478   2.561   0.774 -0.1021  0.1329 -0.0103
 1388SOL    HW1 3983   0.535   2.479   0.769 -0.0809  0.0621  1.1898
 1388SOL    HW2 3984   0.386   2.536   0.804 -0.3727  0.4324 -0.5676
 1389SOL     OW 3985   0.357   1.199   4.435  0.2931 -0.1400 -0.0099
 1389SOL    HW1 3986   0.409   1.284   4.438  0.5557 -0.2706 -0.8330
 1389SOL    HW2 3987   0.418   1.121   4.451  0.1562 -0.2218  0.1234
 1390SOL     OW 3988   1.463   2.380   0.997  0.0783  0.4649  0.0572
 1390SOL    HW1 3989   1.550   2.424   1.017  0.5499  0.3603 -1.5921
 1390SOL    HW2 3990   1.460   2.289   1.040  1.0324  0.2262 -0.3637
 1391SOL     OW 3991   1.019   4.069   4.643  0.0320  0.1179 -0.6542
 1391SOL    HW1 3992   1.022   4.105   4.736  0.4249  0.6584 -0.8726
 1391SOL    HW2 3993   0.996   3.971   4.646  0.0481  0.1273  0.0040
 1392SOL     OW 3994   4.756   3.531   2.870 -0.2908  0.4097  0.0172
 1392SOL    HW1 3995   4.856   3.538   2.864 -0.2734  0.3027  0.1583
 1392SOL    HW2 3996   4.730   3.435   2.883 -0.4974  0.2486 -1.4765
 1393SOL     OW 3997   1.591   3.986   0.375 -0.4354  0.3295 -0.2396
 1393SOL    HW1 3998   1.507   4.023   0.333  0.9327  0.6195 -2.9397
 1393SOL    HW2 3999   1.666   4.050   0.361  0.2372  0.2749  2.5307
 1394SOL     OW 4000   4.850   3.429   0.115 -0.1919  0.2701  0.2247
 1394SOL    HW1 4001   4.908   3.509   0.099 -1.5676  1.8604  2.4852
 1394SOL    HW2 4002   4.900   3.362   0.170  0.6896 -0.0839 -0.9730
 1395SOL     OW 4003   0.583   0.478   1.746  0.6330 -0.8322 -0.1582
 1395SOL    HW1 4004   0.541   0.556   1.791  1.0381 -1.6327  1.6825
 1395SOL    HW2 4005   0.680   0.474   1.769  0.2956 -2.7707  1.1396
 1396SOL     OW 4006   0.217   0.044   5.033 -0.1818  0.2573  0.6932
 1396SOL    HW1 4007   0.254   0.009   5.119 -0.4139  1.1015  1.1451
 1396SOL    HW2 4008   0.255   0.135   5.014 -2.1504  1.2561  1.2872
 1397SOL     OW 4009   1.351   3.649   2.523  0.4097 -0.3586  0.3577
 1397SOL    HW1 4010   1.374   3.646   2.426 -0.6029 -0.8330  0.1166
 1397SOL    HW2 4011   1.266   3.599   2.539  0.4656 -0.1367  1.4671
 1398SOL     OW 4012   3.337   3.986   1.294 -0.2374  0.0560 -0.5379
 1398SOL    HW1 4013   3.240   4.009   1.286 -0.0996  0.1541 -2.3872
 1398SOL    HW2 4014   3.392   4.068   1.277  0.1788 -0.0726  0.1667
 1399SOL     OW 4015   2.000   4.677   2.663  0.2108  0.1196  0.2852
 1399SOL    HW1 4016   2.073   4.693   2.597 -0.6905 -0.9297 -1.0196
 1399SOL    HW2 4017   1.982   4.761   2.714  1.0015  0.9309 -0.7322
 1400SOL     OW 4018   0.282   4.548   1.552  0.0974 -0.2197  0.2694
 1400SOL    HW1 4019   0.210   4.492   1.512 -0.5979  0.1995  0.9193
 1400SOL    HW2 4020   0.260   4.645   1.539  1.0588 -0.0809 -0.4337
 1401SOL     OW 4021   2.166   4.767   1.004 -0.2322  0.1538 -0.3246
 1401SOL    HW1 4022   2.225   4.687   1.016 -0.7463 -0.2726 -0.6193
 1401SOL    HW2 4023   2.118   4.786   1.090 -1.2895 -0.8066 -0.6774
 1402SOL     OW 4024   4.719   0.326   3.113 -0.7710  0.0397 -0.3732
 1402SOL    HW1 4025   4.760   0.360   3.197  0.4725  0.8312 -1.2705
 1402SOL    HW2 4026   4.711   0.401   3.047 -1.2984 -0.6667 -1.1340
 1403SOL     OW 4027   2.146   4.063   1.815  0.4576 -0.2145  0.1344
 1403SOL    HW1 4028   2.126   3.984   1.757 -0.3193  0.0364  0.0434
 1403SOL    HW2 4029   2.242   4.062   1.841  0.9810 -0.0275 -1.6279
 1404SOL     OW 4030   4.984   4.417   4.560 -0.4142  0.2838 -0.3701
 1404SOL    HW1 4031   5.045   4.339   4.542 -1.3243 -1.0244  1.8214
 1404SOL    HW2 4032   5.039   4.499   4.574  0.6606 -0.2598 -1.1572
 1405SOL     OW 4033   2.307   3.219   0.893 -0.3324 -0.2469  1.0213
 1405SOL    HW1 4034   2.386   3.213   0.954  0.7243 -0.0628 -0.2931
 1405SOL    HW2 4035   2.268   3.128   0.879  0.6077 -0.5809  0.4690
 1406SOL     OW 4036   1.207   3.695   4.307  0.2373  0.0739  0.2645
 1406SOL    HW1 4037   1.218   3.720   4.211 -0.6399 -1.0872 -0.1591
 1406SOL    HW2 4038   1.278   3.740   4.361  3.0636 -2.0689 -1.3978
 1407SOL     OW 4039   0.542   4.807   2.153  0.3629  0.4499  0.0164
 1407SOL    HW1 4040   0.576   4.716   2.130 -0.6447  0.0684 -0.0210
 1407SOL    HW2 4041   0.604   4.850   2.219  0.2262 -0.7324  0.9452
 1408SOL     OW 4042   0.930   2.537   2.517  0.7269  0.5494 -0.0696
 1408SOL    HW1 4043   0.880   2.595   2.453  0.1442 -0.7063 -0.7801
 1408SOL    HW2 4044   0.984   2.470   2.467  2.8599  1.6126  0.6940
 1409SOL     OW 4045   2.057   0.075   1.433 -0.4844  0.1755  0.0166
 1409SOL    HW1 4046   2.015  -0.011   1.462  2.3601 -1.6147 -0.8065
 1409SOL    HW2 4047   2.045   0.144   1.505 -0.4439 -1.7442  1.9623
 1410SOL     OW 4048   2.323   3.631   1.771  0.1871  0.7050  0.3027
 1410SOL    HW1 4049   2.309   3.636   1.870  1.3064 -1.6846  0.6528
 1410SOL    HW2 4050   2.242   3.591   1.728  0.7866 -0.9987  0.6757
 1411SOL     OW 4051   1.507   2.915   1.927 -0.0967 -0.3080  0.2501
 1411SOL    HW1 4052   1.592   2.961   1.951 -1.4150  2.5937 -0.2596
 1411SOL    HW2 4053   1.493   2.921   1.828 -1.3103  0.0256  0.4337
 1412SOL     OW 4054   1.305   3.004   1.396 -0.3741 -0.2522 -0.5078
 1412SOL    HW1 4055   1.313   2.906   1.412 -0.5477 -0.2811 -0.5954
 1412SOL    HW2 4056   1.284   3.050   1.483  1.5055 -0.0756 -0.0942
 1413SOL     OW 4057   3.450   0.744   1.783 -0.2648 -0.2601 -0.4657
 1413SOL    HW1 4058   3.401   0.823   1.820  0.2294 -0.0483 -0.2606
 1413SOL    HW2 4059   3.491   0.692   1.858  2.1371  1.0692 -0.7731
 1414SOL     OW 4060   2.658   4.090   1.776  0.3391  0.4738 -0.4308
 1414SOL    HW1 4061   2.681   4.054   1.686 -0.5830 -0.1726 -0.4182
 1414SOL    HW2 4062   2.724   4.160   1.802  3.1928 -2.2194  0.1970
 1415SOL     OW 4063   0.501   4.075   0.338  0.3191  0.2079 -0.0873
 1415SOL    HW1 4064   0.466   4.146   0.400 -1.6851 -0.7273 -0.0658
 1415SOL    HW2 4065   0.540   4.117   0.257  0.3602  1.3710  0.5174
 1416SOL     OW 4066   2.084   5.027   2.934  0.4488 -0.1164  0.2773
 1416SOL    HW1 4067   2.173   4.981   2.925 -0.3403 -1.5359 -0.9305
 1416SOL    HW2 4068   2.032   4.984   3.008 -0.5014 -1.6721 -1.1992
 1417SOL     OW 4069   0.438   0.878   1.475 -0.1013 -0.1855 -0.0208
 1417SOL    HW1 4070   0.506   0.947   1.497 -0.6473  0.4002 -0.1556
 1417SOL    HW2 4071   0.388   0.852   1.558 -0.8894  0.6642 -0.2050
 1418SOL     OW 4072   1.912   2.913   0.846 -0.4968 -0.7350  0.9170
 1418SOL    HW1 4073   1.832   2.971   0.856 -0.8418 -0.8293 -1.0239
 1418SOL    HW2 4074   1.884   2.817   0.852 -0.3495 -0.7561  1.3162
 1419SOL     OW 4075   0.281   4.571   2.452 -0.0220  0.4651  0.5708
 1419SOL    HW1 4076   0.192   4.559   2.497 -0.5729  3.1692  0.4248
 1419SOL    HW2 4077   0.266   4.610   2.361  1.2784 -0.8259 -0.2308
 1420SOL     OW 4078   0.553   4.248   0.572 -0.1725 -0.2135 -0.2920
 1420SOL    HW1 4079   0.628   4.281   0.631  1.0914 -1.9287 -0.8480
 1420SOL    HW2 4080   0.473   4.307   0.584  1.6964  2.5938 -0.7550
 1421SOL     OW 4081   2.564   4.371   1.447  0.1343  0.4857 -0.1247
 1421SOL    HW1 4082   2.467   4.347   1.452  0.3143  0.0827  2.8145
 1421SOL    HW2 4083   2.619   4.287   1.442  0.4099  0.6399  0.3293
 1422SOL     OW 4084   2.606   2.914   1.665  0.6300 -0.0869  0.0350
 1422SOL    HW1 4085   2.570   2.887   1.755  1.0309 -1.6956 -0.2564
 1422SOL    HW2 4086   2.700   2.881   1.656  1.1989  1.5367 -0.3521
 1423SOL     OW 4087   1.427   3.889   0.937 -0.1389 -0.3619  0.2695
 1423SOL    HW1 4088   1.453   3.825   1.009 -1.6181 -1.2177  0.0654
 1423SOL    HW2 4089   1.391   3.839   0.858 -2.0517  0.7217  0.3982
 1424SOL     OW 4090   0.710   4.154   4.723  0.8302 -0.5408 -0.8780
 1424SOL    HW1 4091   0.735   4.202   4.639 -0.8833  0.7545 -0.7031
 1424SOL    HW2 4092   0.722   4.215   4.801 -0.8122 -0.5552 -0.5824
 1425SOL     OW 4093   2.668   4.390   0.718  0.4186 -0.0119 -0.1329
 1425SOL    HW1 4094   2.640   4.329   0.792 -1.2414  0.0180 -0.7054
 1425SOL    HW2 4095   2.763   4.371   0.693 -0.1702 -2.6589 -0.5744
 1426SOL     OW 4096   1.519   0.336   1.904  0.6485 -0.0265  0.2995
 1426SOL    HW1 4097   1.551   0.242   1.918  0.6619 -0.1574 -0.5664
 1426SOL    HW2 4098   1.519   0.384   1.991 -0.3736 -1.1484  0.9521
 1427SOL     OW 4099   4.370   4.464   3.273  0.9629 -0.2218 -0.3174
 1427SOL    HW1 4100   4.341   4.370   3.293  0.7340 -0.1202 -0.1636
 1427SOL    HW2 4101   4.468   4.466   3.252  0.7097 -0.6937 -1.6183
 1428SOL     OW 4102   1.217   4.840   2.739 -0.3442  0.5138  0.0813
 1428SOL    HW1 4103   1.295   4.902   2.752  0.5451  0.0264 -2.2963
 1428SOL    HW2 4104   1.165   4.869   2.659 -1.1606 -0.5870  0.1965
 1429SOL     OW 4105   3.750   3.665   2.065 -0.2933 -0.4491 -0.2188
 1429SOL    HW1 4106   3.666   3.611   2.053 -0.1680 -0.5166 -0.8262
 1429SOL    HW2 4107   3.790   3.646   2.155 -0.6095 -0.8610 -0.1637
 1430SOL     OW 4108   0.785   4.934   1.717 -0.1072  0.1023  0.3430
 1430SOL    HW1 4109   0.722   4.989   1.771 -2.1716 -0.2350 -1.5822
 1430SOL    HW2 4110   0.757   4.936   1.621  3.4743  0.8519 -0.8575
 1431SOL     OW 4111   1.623   1.759   2.969  0.3051 -0.5656 -0.3141
 1431SOL    HW1 4112   1.686   1.692   2.928  1.2027 -0.3959  0.7331
 1431SOL    HW2 4113   1.668   1.848   2.974 -0.7045  0.0242 -1.2337
 1432SOL     OW 4114   2.980   2.533   3.824 -0.3030  0.1730  0.1156
 1432SOL    HW1 4115   3.034   2.569   3.900 -1.0677 -0.8925  1.1888
 1432SOL    HW2 4116   3.037   2.474   3.767 -0.0009  0.0785  0.5123
 1433SOL     OW 4117   3.127   0.260   2.817  0.2146  0.1628  0.2998
 1433SOL    HW1 4118   3.172   0.171   2.806  1.1374  0.6376  0.1039
 1433SOL    HW2 4119   3.192   0.325   2.856 -0.8945  0.3680  1.9474
 1434SOL     OW 4120   2.230   0.762   2.287  0.5468  0.1223  0.0464
 1434SOL    HW1 4121   2.155   0.823   2.261 -0.2316  0.6183  3.0380
 1434SOL    HW2 4122   2.216   0.672   2.247 -0.7692  0.6628 -0.7560
 1435SOL     OW 4123   0.175   4.815   3.491  0.1200 -0.4665  0.4908
 1435SOL    HW1 4124   0.260   4.781   3.530  0.2236  0.6053  1.2511
 1435SOL    HW2 4125   0.174   4.915   3.497 -0.8203 -0.4175 -0.2926
 1436SOL     OW 4126   2.815   3.280   3.346 -0.4063 -0.2140  0.3403
 1436SOL    HW1 4127   2.805   3.311   3.251  0.1744 -1.2330 -0.0642
 1436SOL    HW2 4128   2.766   3.194   3.359  1.4612 -1.3352  0.3063
 1437SOL     OW 4129   4.264   0.138   3.242 -0.4085  0.5117  0.0944
 1437SOL    HW1 4130   4.244   0.115   3.147  1.1839  1.8005 -0.5917
 1437SOL    HW2 4131   4.354   0.179   3.248  0.4718 -1.5297  2.4980
 1438SOL     OW 4132   1.114   4.884   3.988  0.2210 -0.5828  0.3404
 1438SOL    HW1 4133   1.157   4.972   3.967  0.2417 -0.5103  0.6711
 1438SOL    HW2 4134   1.176   4.810   3.964  0.3669 -0.4923  0.4375
 1439SOL     OW 4135   2.520   3.912   0.954  0.0853  0.5807  0.1608
 1439SOL    HW1 4136   2.495   3.966   1.034  1.1031 -1.1520  1.7287
 1439SOL    HW2 4137   2.462   3.830   0.949  1.3440 -0.3586  0.3478
 1440SOL     OW 4138   0.518   3.338   2.966 -0.1820 -0.0302  0.3780
 1440SOL    HW1 4139   0.432   3.308   3.006 -1.6099 -1.4031 -3.3347
 1440SOL    HW2 4140   0.573   3.258   2.940  0.7220  0.7684 -0.2687
 1441SOL     OW 4141   1.725   3.974   2.908 -0.0967  0.0727 -0.1339
 1441SOL    HW1 4142   1.818   4.003   2.928 -0.3883  1.8855 -1.1335
 1441SOL    HW2 4143   1.679   4.045   2.854 -2.4581 -0.1578  1.3867
 1442SOL     OW 4144   3.999   4.555   3.023 -0.0601 -0.0483 -0.0174
 1442SOL    HW1 4145   4.046   4.474   2.988  0.0130 -0.0187  0.0127
 1442SOL    HW2 4146   4.045   4.586   3.106  1.3713  1.4274 -1.2974
 1443SOL     OW 4147   2.515   4.678   1.115  0.0170  0.0864  0.8018
 1443SOL    HW1 4148   2.565   4.755   1.074 -0.7456  0.3953  0.4437
 1443SOL    HW2 4149   2.516   4.687   1.215  1.0702 -0.1639  0.8320
 1444SOL     OW 4150   1.877   4.326   0.505  0.0086  0.2734 -0.1931
 1444SOL    HW1 4151   1.888   4.418   0.468 -0.4341 -0.0539 -1.1874
 1444SOL    HW2 4152   1.914   4.322   0.598 -0.7612  1.6808  0.1957
 1445SOL     OW 4153   1.550   4.289   1.403 -0.3686 -0.2000 -0.5303
 1445SOL    HW1 4154   1.587   4.357   1.466 -0.1157 -2.4786  1.9285
 1445SOL    HW2 4155   1.614   4.275   1.327  1.4058 -0.4054  0.9409
 1446SOL     OW 4156   4.556   4.562   2.576  0.2885  0.3023 -0.3591
 1446SOL    HW1 4157   4.548   4.467   2.604 -0.9780  0.0819 -1.3437
 1446SOL    HW2 4158   4.477   4.613   2.610  1.1250  1.0939  0.4453
 1447SOL     OW 4159   1.969   4.688   2.158  0.1043 -0.6256 -0.1532
 1447SOL    HW1 4160   2.066   4.698   2.182  0.1143 -1.1231  0.0164
 1447SOL    HW2 4161   1.958   4.705   2.060  0.2208  0.3547 -0.0055
 1448SOL     OW 4162   1.154   4.741   4.236  0.0958  0.5635 -0.2335
 1448SOL    HW1 4163   1.159   4.804   4.158 -1.1417 -1.0637 -1.7310
 1448SOL    HW2 4164   1.243   4.736   4.281  0.7576  1.8115 -1.3136
 1449SOL     OW 4165   0.953   2.737   3.286  0.2786  0.0822 -0.1040
 1449SOL    HW1 4166   0.934   2.672   3.212 -1.6562  0.0948  0.3366
 1449SOL    HW2 4167   0.994   2.820   3.248 -1.1402  0.2943 -1.2496
 1450SOL     OW 4168   2.068   3.561   3.329  0.1399  0.2360  0.2679
 1450SOL    HW1 4169   2.079   3.660   3.323 -1.4700  0.3854 -0.5028
 1450SOL    HW2 4170   2.151   3.517   3.295  0.4381  1.3111 -0.4624
 1451SOL     OW 4171   1.620   1.939   2.303  0.0539 -0.3056  0.4108
 1451SOL    HW1 4172   1.696   1.961   2.241  1.6839  1.9067  2.9936
 1451SOL    HW2 4173   1.648   1.865   2.364 -0.5416 -0.6600  0.2580
 1452SOL     OW 4174   3.275   4.484   1.144  0.1127 -0.0426 -0.0722
 1452SOL    HW1 4175   3.258   4.581   1.161  2.0906 -0.1130  2.9683
 1452SOL    HW2 4176   3.340   4.473   1.069  1.2352  1.0750  0.7247
 1453SOL     OW 4177   0.921   4.794   4.377 -0.2790 -0.2406  0.3045
 1453SOL    HW1 4178   1.007   4.758   4.342  1.1524  0.6144  2.7550
 1453SOL    HW2 4179   0.910   4.890   4.349  0.0917 -0.0355  0.8496
 1454SOL     OW 4180   0.928   4.023   2.164 -0.1553  0.0636  0.3024
 1454SOL    HW1 4181   0.860   4.068   2.221 -0.4642 -0.3431  0.2601
 1454SOL    HW2 4182   0.977   4.091   2.109 -0.5921  0.3469  0.2652
 1455SOL     OW 4183   0.812   3.996   0.801 -0.1145 -0.2184  0.0747
 1455SOL    HW1 4184   0.826   4.040   0.712 -1.2082 -0.4604 -0.2409
 1455SOL    HW2 4185   0.789   3.899   0.786  3.7934 -1.4097  0.8012
 1456SOL     OW 4186   0.857   4.327   2.274  0.3176 -0.0036  0.0540
 1456SOL    HW1 4187   0.797   4.362   2.345 -0.4169  0.2015 -0.6541
 1456SOL    HW2 4188   0.937   4.283   2.316  0.6259  1.3825  0.9851
 1457SOL     OW 4189   1.136   4.879   0.937  0.1520 -0.4831 -0.2510
 1457SOL    HW1 4190   1.105   4.826   0.859  0.4587  0.3962 -0.9955
 1457SOL    HW2 4191   1.141   4.821   1.018 -0.2631 -1.3845 -0.8618
 1458SOL     OW 4192   1.704   2.777   3.126 -0.1632 -0.2165 -0.2117
 1458SOL    HW1 4193   1.741   2.694   3.167 -1.4998 -0.3128  0.8821
 1458SOL    HW2 4194   1.682   2.760   3.029 -1.1778 -1.4204  0.1925
 1459SOL     OW 4195   1.890   0.701   3.394  0.0085 -0.0879 -0.2436
 1459SOL    HW1 4196   1.840   0.668   3.314  0.1221 -0.7850 -0.0276
 1459SOL    HW2 4197   1.965   0.760   3.365 -1.1017  1.2067 -0.5638
 1460SOL     OW 4198   0.128   2.954   2.528  0.5489  0.1678 -0.2015
 1460SOL    HW1 4199   0.109   2.897   2.608  1.3143  0.8567  0.4990
 1460SOL    HW2 4200   0.197   2.909   2.471  3.6184  1.6834  1.9924
 1461SOL     OW 4201   2.170   4.620   1.721 -0.6489  0.2198  0.0707
 1461SOL    HW1 4202   2.148   4.548   1.787  1.1477 -0.7946 -0.3800
 1461SOL    HW2 4203   2.267   4.641   1.725 -0.8952  1.6701 -0.7851
 1462SOL     OW 4204   0.882   3.980   2.583  0.4954 -0.1573 -0.0686
 1462SOL    HW1 4205   0.919   3.887   2.586  1.8688  0.2489 -2.1027
 1462SOL    HW2 4206   0.933   4.039   2.644 -1.2700 -0.9340  2.3173
 1463SOL     OW 4207   4.750   3.760   1.532 -0.1133  0.0402 -0.8616
 1463SOL    HW1 4208   4.650   3.770   1.533 -0.2241 -0.7549 -1.8179
 1463SOL    HW2 4209   4.775   3.681   1.588 -0.0806 -0.1640 -1.1632
 1464SOL     OW 4210   0.167   3.483   4.434 -0.6142  0.4505  0.1144
 1464SOL    HW1 4211   0.255   3.447   4.465 -1.5149 -2.8042 -0.7815
 1464SOL    HW2 4212   0.166   3.483   4.334 -2.0048 -0.6450  0.1064
 1465SOL     OW 4213   1.396   4.849   2.419 -0.5075  0.0734 -0.4029
 1465SOL    HW1 4214   1.486   4.890   2.406 -0.4829 -0.2942 -1.4763
 1465SOL    HW2 4215   1.404   4.767   2.476 -0.3692  0.7781  0.6227
 1466SOL     OW 4216   4.913   4.223   1.653 -0.2966 -0.3467 -0.0690
 1466SOL    HW1 4217   4.923   4.230   1.752  0.7295 -1.2963 -0.0905
 1466SOL    HW2 4218   4.907   4.127   1.627  0.1331 -0.1301 -0.9897
 1467SOL     OW 4219   2.184   4.301   2.168 -0.1035 -0.3717 -0.1372
 1467SOL    HW1 4220   2.173   4.202   2.157 -0.8877 -0.2297 -0.7651
 1467SOL    HW2 4221   2.094   4.344   2.177  0.1332  0.4266 -1.2712
 1468SOL     OW 4222   2.221   4.376   1.299  0.4963  0.8326  0.0226
 1468SOL    HW1 4223   2.122   4.379   1.286  0.4293  2.9963  0.6736
 1468SOL    HW2 4224   2.242   4.332   1.386  0.1838 -0.3406 -0.4701
 1469SOL     OW 4225   3.459   1.249   2.931 -0.5012  0.1747  0.6798
 1469SOL    HW1 4226   3.399   1.231   2.853  0.0494 -0.1611  0.3256
 1469SOL    HW2 4227   3.518   1.327   2.910 -0.5211  0.2407  0.8625
 1470SOL     OW 4228   3.817   3.459   2.374  0.5158 -0.5436  0.2844
 1470SOL    HW1 4229   3.911   3.493   2.385  0.8241 -1.4945  0.7419
 1470SOL    HW2 4230   3.753   3.536   2.374  1.2500  0.0778  0.5371
 1471SOL     OW 4231   1.956   4.359   3.043 -0.9307  0.6905  0.5925
 1471SOL    HW1 4232   2.035   4.297   3.041  0.0590  1.8771  1.5815
 1471SOL    HW2 4233   1.948   4.407   2.956  1.1631  2.5935  1.3619
 1472SOL     OW 4234   1.282   2.631   1.942  0.1268  0.1430  0.3556
 1472SOL    HW1 4235   1.204   2.573   1.917  0.3504  0.2597 -0.6650
 1472SOL    HW2 4236   1.345   2.637   1.865 -0.1030  2.0778  0.2726
 1473SOL     OW 4237   0.752   0.838   3.440 -0.2787 -0.3454  0.0397
 1473SOL    HW1 4238   0.750   0.897   3.520 -3.1056 -1.2745  0.7885
 1473SOL    HW2 4239   0.811   0.759   3.457 -1.0213 -0.6397  1.3256
 1474SOL     OW 4240   1.930   3.309   3.384 -0.1002  0.1865  0.1725
 1474SOL    HW1 4241   1.962   3.248   3.456  1.3800  2.2118  1.3483
 1474SOL    HW2 4242   1.998   3.380   3.368 -0.3718 -0.1781 -3.3017
 1475SOL     OW 4243   3.161   2.689   3.567  0.6223  0.4784 -0.1106
 1475SOL    HW1 4244   3.175   2.592   3.584  2.7443  0.6477 -0.5539
 1475SOL    HW2 4245   3.142   2.703   3.469 -1.0274  0.4224  0.1776
 1476SOL     OW 4246   1.940   4.253   3.290  0.0737 -0.1882 -0.0632
 1476SOL    HW1 4247   1.857   4.199   3.283 -0.6104  0.7320  0.7015
 1476SOL    HW2 4248   1.949   4.311   3.209  0.1602 -0.5389 -0.3071
 1477SOL     OW 4249   2.847   1.343   2.003 -0.2985  0.5268  0.1435
 1477SOL    HW1 4250   2.831   1.309   2.096 -0.2189  1.7641  0.6370
 1477SOL    HW2 4251   2.806   1.281   1.937 -1.2716  0.1522  1.0643
 1478SOL     OW 4252   4.886   4.842   2.043  0.1177  0.3627  0.0051
 1478SOL    HW1 4253   4.969   4.829   1.989  1.3999 -0.5342  2.0724
 1478SOL    HW2 4254   4.902   4.915   2.110 -1.6936  1.9842 -1.2010
 1479SOL     OW 4255   1.505   3.052   2.865  0.4242 -0.1739  0.1730
 1479SOL    HW1 4256   1.542   3.112   2.794  2.7829 -2.6422 -0.8525
 1479SOL    HW2 4257   1.548   3.074   2.953  0.4361  0.3412  0.0420
 1480SOL     OW 4258   0.922   3.606   1.624 -0.0880  0.4295  0.2359
 1480SOL    HW1 4259   1.003   3.550   1.642 -0.7186 -0.4063  0.5526
 1480SOL    HW2 4260   0.857   3.554   1.569 -1.6821 -0.0556  2.4479
 1481SOL     OW 4261   0.965   0.170   2.789  0.2435 -0.3589 -0.2732
 1481SOL    HW1 4262   0.986   0.257   2.743 -1.1933 -0.5724 -1.4164
 1481SOL    HW2 4263   0.991   0.094   2.731  0.0378 -0.6666  0.0315
 1482SOL     OW 4264   4.916   4.562   2.060  0.5608 -0.5864  0.2235
 1482SOL    HW1 4265   4.965   4.511   1.989  0.7505  0.0262 -0.0921
 1482SOL    HW2 4266   4.917   4.659   2.038 -0.0253 -0.4693  0.6831
 1483SOL     OW 4267   1.647   2.603   0.417  0.9207  0.3707  0.8641
 1483SOL    HW1 4268   1.720   2.603   0.486  0.7686  0.3666  1.0264
 1483SOL    HW2 4269   1.559   2.582   0.461  0.3708  2.9566  1.1669
 1484SOL     OW 4270   4.840   4.289   3.897  0.2998  0.0053 -0.1084
 1484SOL    HW1 4271   4.880   4.222   3.959 -0.9872 -0.6698  0.0166
 1484SOL    HW2 4272   4.900   4.369   3.892  1.3494 -0.7181  0.5290
 1485SOL     OW 4273   4.134   3.396   1.758 -0.5707 -0.1162  0.2109
 1485SOL    HW1 4274   4.169   3.489   1.743  1.0912 -0.8375 -0.6289
 1485SOL    HW2 4275   4.049   3.384   1.707  0.1797  0.3781 -1.2050
 1486SOL     OW 4276   3.626   0.310   3.362 -0.2970 -0.2445 -0.1153
 1486SOL    HW1 4277   3.583   0.221   3.371  0.5476 -0.8915 -1.9510
 1486SOL    HW2 4278   3.706   0.303   3.302 -0.5389  1.8356 -0.7915
 1487SOL     OW 4279   0.501   4.232   3.174 -0.2763  0.1649 -0.3824
 1487SOL    HW1 4280   0.526   4.216   3.078  0.7890  1.3124 -0.3306
 1487SOL    HW2 4281   0.406   4.205   3.189  0.1033 -1.8091 -1.2927
 1488SOL     OW 4282   0.829   0.508   0.034 -0.1052  0.1811  0.1111
 1488SOL    HW1 4283   0.783   0.447  -0.030  1.5636 -0.5093 -0.4909
 1488SOL    HW2 4284   0.914   0.541  -0.006  0.8139  0.0198  1.8222
 1489SOL     OW 4285   1.922   4.331   2.489  0.0816 -0.0801  0.3481
 1489SOL    HW1 4286   1.900   4.291   2.578  0.6779  0.4832  0.7543
 1489SOL    HW2 4287   2.015   4.306   2.464 -0.6961 -1.8561 -1.0287
 1490SOL     OW 4288   1.090   2.895   2.647  0.3033  0.8208  0.4334
 1490SOL    HW1 4289   1.030   2.950   2.590 -0.5076  1.6038  1.9686
 1490SOL    HW2 4290   1.051   2.804   2.660  0.1354  0.8791  0.3353
 1491SOL     OW 4291   1.680   3.792   0.736 -0.0146 -0.2277 -0.1524
 1491SOL    HW1 4292   1.767   3.801   0.687 -0.2556 -0.2538 -0.5943
 1491SOL    HW2 4293   1.613   3.855   0.697 -0.1522 -0.1039  0.2836
 1492SOL     OW 4294   4.478   4.911   2.666  0.2897 -0.1271 -1.0074
 1492SOL    HW1 4295   4.508   4.874   2.754  1.0430  1.0472 -0.7337
 1492SOL    HW2 4296   4.559   4.932   2.611 -0.1689 -0.3775 -1.7830
 1493SOL     OW 4297   2.373   0.816   3.233  0.4501 -0.3723  0.0561
 1493SOL    HW1 4298   2.349   0.719   3.236  0.0002 -0.2578  0.0885
 1493SOL    HW2 4299   2.423   0.840   3.316 -0.9188 -0.1798  0.8510
 1494SOL     OW 4300   1.108   3.583   3.105  0.1183 -0.1074 -0.3081
 1494SOL    HW1 4301   1.041   3.582   3.030 -0.0714 -1.6717 -0.1514
 1494SOL    HW2 4302   1.096   3.502   3.161  0.8330  0.6178  0.9343
 1495SOL     OW 4303   3.378   3.437   4.579 -0.3261 -0.1832 -0.0592
 1495SOL    HW1 4304   3.431   3.390   4.508 -0.3177 -1.0782  0.5263
 1495SOL    HW2 4305   3.295   3.476   4.538 -0.4467 -0.9029 -0.5236
 1496SOL     OW 4306   3.404   3.284   1.183  0.1384 -0.1084  0.1512
 1496SOL    HW1 4307   3.386   3.207   1.122 -3.3493  0.6939 -0.0698
 1496SOL    HW2 4308   3.414   3.368   1.128 -0.5269  0.2279  0.5207
 1497SOL     OW 4309   0.957   3.292   3.549  0.2566 -0.3858  0.1101
 1497SOL    HW1 4310   0.960   3.341   3.637 -0.9212  0.5720 -0.3575
 1497SOL    HW2 4311   0.885   3.223   3.553  0.7628 -0.9134  0.1753
 1498SOL     OW 4312   1.076   3.871   2.927  0.3143 -0.3271  0.2627
 1498SOL    HW1 4313   1.026   3.785   2.929 -0.2175 -0.0616  2.7269
 1498SOL    HW2 4314   1.035   3.933   2.860 -1.0700 -1.0384  0.4146
 1499SOL     OW 4315   1.348   0.950   2.860  0.3735  0.0881  0.8407
 1499SOL    HW1 4316   1.369   0.999   2.945 -0.8390  0.0155  1.1941
 1499SOL    HW2 4317   1.367   1.010   2.782  1.3693  0.1993  1.1498
 1500SOL     OW 4318   2.138   3.897   3.896  0.0264  0.2359 -0.5967
 1500SOL    HW1 4319   2.180   3.877   3.807 -0.3094 -0.6481 -0.5632
 1500SOL    HW2 4320   2.039   3.884   3.889 -0.0181  0.3200 -0.1366
 1501SOL     OW 4321   0.283   4.267   2.898  0.4247 -0.0510 -0.0231
 1501SOL    HW1 4322   0.226   4.318   2.963 -0.0920  0.2264 -0.6858
 1501SOL    HW2 4323   0.241   4.271   2.807  1.5884  0.2859 -0.5528
 1502SOL     OW 4324   1.644   3.685   1.831  0.3035 -0.5493 -0.3956
 1502SOL    HW1 4325   1.660   3.691   1.733 -0.6279 -1.3297 -0.6063
 1502SOL    HW2 4326   1.716   3.736   1.879  0.5463  0.1781 -1.4811
 1503SOL     OW 4327   0.848   4.017   3.711  0.5056  0.1267  0.1529
 1503SOL    HW1 4328   0.895   4.022   3.799 -1.0741 -0.1422  1.0398
 1503SOL    HW2 4329   0.808   4.106   3.690  0.5599  0.0872 -0.1188
 1504SOL     OW 4330   0.673   4.381   4.896 -0.4557  0.0911  0.5441
 1504SOL    HW1 4331   0.771   4.393   4.912 -0.7480  1.4615  1.4910
 1504SOL    HW2 4332   0.623   4.459   4.934 -1.8102  0.1271 -1.1836
 1505SOL     OW 4333   1.073   0.579   2.121 -0.0727  0.1604  0.4171
 1505SOL    HW1 4334   1.168   0.558   2.142  1.3749  1.9077 -3.4683
 1505SOL    HW2 4335   1.048   0.667   2.162  0.5327  0.4765  0.1125
 1506SOL     OW 4336   1.508   0.257   3.594 -0.3841  0.4339 -0.2246
 1506SOL    HW1 4337   1.583   0.220   3.649 -0.9713 -0.2744  0.1252
 1506SOL    HW2 4338   1.434   0.287   3.654 -0.6610  0.4901 -0.5866
 1507SOL     OW 4339   0.279   4.155   1.363  0.1155 -0.4764  1.2404
 1507SOL    HW1 4340   0.269   4.057   1.384 -1.0573 -0.9252 -1.1303
 1507SOL    HW2 4341   0.350   4.167   1.294  0.3369  0.3685  1.6124
 1508SOL     OW 4342   4.325   2.412   2.817  0.4098 -0.5004 -0.3262
 1508SOL    HW1 4343   4.308   2.467   2.735 -0.1324 -2.0110 -1.2656
 1508SOL    HW2 4344   4.263   2.442   2.890 -1.6683 -1.4535 -1.6016
 1509SOL     OW 4345   4.678   4.253   3.700  0.0357 -0.5791 -0.0146
 1509SOL    HW1 4346   4.705   4.164   3.663  1.4801 -0.2929  0.2669
 1509SOL    HW2 4347   4.738   4.277   3.776 -1.1928  0.0481  0.7928
 1510SOL     OW 4348   3.254   3.148   3.409  0.1311  1.3301 -0.8554
 1510SOL    HW1 4349   3.191   3.226   3.412 -2.3356 -0.5746 -0.3474
 1510SOL    HW2 4350   3.251   3.099   3.495  0.8843  0.1183 -1.4942
 1511SOL     OW 4351   3.983   0.137   4.761 -0.2302 -0.6970 -0.0136
 1511SOL    HW1 4352   3.970   0.098   4.852 -1.5975 -0.0204  0.0970
 1511SOL    HW2 4353   3.894   0.154   4.719  0.3780  0.0301 -1.0410
 1512SOL     OW 4354   0.933   3.244   1.415  0.0132  0.1865 -0.1613
 1512SOL    HW1 4355   0.881   3.224   1.498 -0.4459  1.2376 -0.1832
 1512SOL    HW2 4356   0.982   3.330   1.427 -1.8830  1.5638 -1.8164
 1513SOL     OW 4357   2.649   3.392   2.194 -0.3951  0.4821  0.2557
 1513SOL    HW1 4358   2.552   3.413   2.185 -0.0502  1.9827 -0.3143
 1513SOL    HW2 4359   2.697   3.422   2.111  0.6369  0.3165  0.7804
 1514SOL     OW 4360   1.262   3.590   1.896 -0.2319 -0.3433 -0.1615
 1514SOL    HW1 4361   1.331   3.661   1.904 -0.2135 -0.2397 -1.1065
 1514SOL    HW2 4362   1.209   3.585   1.980 -0.5159  1.0814 -0.2408
 1515SOL     OW 4363   4.550   2.932   4.482 -0.4608 -1.2529 -0.0696
 1515SOL    HW1 4364   4.613   2.965   4.412 -0.9087 -0.0437  0.0683
 1515SOL    HW2 4365   4.539   3.003   4.553 -0.9575 -1.9631  0.5791
 1516SOL     OW 4366   5.024   4.036   3.132 -0.0484 -0.4554  0.0625
 1516SOL    HW1 4367   4.990   4.010   3.223 -1.0414  0.6903  0.0335
 1516SOL    HW2 4368   4.953   4.083   3.081  0.6408 -0.7026 -1.1703
 1517SOL     OW 4369   1.066   4.203   3.224  0.4520  0.0815 -0.5607
 1517SOL    HW1 4370   0.967   4.187   3.220  0.3060 -0.0251  1.6800
 1517SOL    HW2 4371   1.114   4.123   3.189 -0.2444  0.1078 -1.6133
 1518SOL     OW 4372   1.288   4.926   0.110  0.2293  0.3081  0.5091
 1518SOL    HW1 4373   1.287   4.836   0.153  3.7382 -0.5427 -0.8661
 1518SOL    HW2 4374   1.226   4.927   0.032  0.1508 -0.9201  0.5360
 1519SOL     OW 4375   0.319   4.439   2.139 -0.0873  0.3259 -0.0867
 1519SOL    HW1 4376   0.252   4.381   2.186 -0.2821  0.5765 -0.0517
 1519SOL    HW2 4377   0.339   4.401   2.049 -0.9967  0.7600 -0.4867
 1520SOL     OW 4378   1.612   0.667   4.830 -0.2853  0.3214  0.1502
 1520SOL    HW1 4379   1.557   0.585   4.844  1.6834 -1.2090 -0.7143
 1520SOL    HW2 4380   1.680   0.651   4.758 -0.8917  3.2656 -1.2673
 1521SOL     OW 4381   3.828   4.423   2.567  0.0315 -0.5881 -0.3313
 1521SOL    HW1 4382   3.762   4.365   2.520  0.6805 -0.1162 -1.8968
 1521SOL    HW2 4383   3.897   4.454   2.503  1.0455  0.0029  0.9875
 1522SOL     OW 4384   0.280   4.813   4.366  0.2143  0.2230  0.0059
 1522SOL    HW1 4385   0.323   4.850   4.449  2.1272 -0.5540 -0.5734
 1522SOL    HW2 4386   0.349   4.806   4.294 -1.4572  1.1350 -1.7755
 1523SOL     OW 4387   1.789   0.631   4.620  0.4322 -0.0397  0.4223
 1523SOL    HW1 4388   1.833   0.707   4.573  0.5025 -0.7459 -0.6932
 1523SOL    HW2 4389   1.729   0.582   4.556 -0.9885  0.1241  1.5652
 1524SOL     OW 4390   2.285   0.589   0.763  0.0701 -0.0533  0.5579
 1524SOL    HW1 4391   2.377   0.551   0.775  0.2748 -0.0448 -0.7746
 1524SOL    HW2 4392   2.249   0.561   0.674 -0.1604  2.0669 -0.0831
 1525SOL     OW 4393   2.048   3.815   1.325 -0.6293 -0.3200 -0.0955
 1525SOL    HW1 4394   2.133   3.768   1.301  0.0067  0.6106  0.2520
 1525SOL    HW2 4395   2.005   3.770   1.403  0.0413 -0.2492  0.3169
 1526SOL     OW 4396   0.940   3.582   2.875 -0.3053 -0.6510 -0.2227
 1526SOL    HW1 4397   0.840   3.582   2.866 -0.2879 -1.8290 -0.5752
 1526SOL    HW2 4398   0.976   3.494   2.844  1.0821  0.6608 -2.6091
 1527SOL     OW 4399   4.752   3.786   2.970 -0.5888 -0.1432 -0.0162
 1527SOL    HW1 4400   4.740   3.697   2.926 -1.1511  0.4800 -1.1659
 1527SOL    HW2 4401   4.716   3.781   3.063 -2.4240 -0.6066 -0.7012
 1528SOL     OW 4402   1.422   4.707   4.419  0.3609 -0.4216  0.3644
 1528SOL    HW1 4403   1.519   4.709   4.443  0.3582 -0.1883  0.3535
 1528SOL    HW2 4404   1.370   4.667   4.494 -0.1055  3.4526  2.3399
 1529SOL     OW 4405   1.668   4.730   3.130 -0.0129 -0.4480 -0.5737
 1529SOL    HW1 4406   1.611   4.721   3.211  0.9479  0.0816  0.1815
 1529SOL    HW2 4407   1.616   4.703   3.049 -2.4691  3.0340 -0.3813
 1530SOL     OW 4408   1.802   2.899   3.858 -0.8087  0.7701  0.0608
 1530SOL    HW1 4409   1.748   2.983   3.848  0.2121  1.2564 -1.7992
 1530SOL    HW2 4410   1.864   2.908   3.936 -1.8932  1.0329  0.9229
 1531SOL     OW 4411   2.104   0.468   1.476  0.3792 -0.3006 -0.2656
 1531SOL    HW1 4412   2.134   0.559   1.503  1.7801 -0.6174 -0.6989
 1531SOL    HW2 4413   2.051   0.474   1.391 -0.5344  0.2173  0.3211
 1532SOL     OW 4414   0.636   3.788   2.097  0.4947 -0.1442  0.3396
 1532SOL    HW1 4415   0.660   3.873   2.050  1.0071 -1.0580 -1.0838
 1532SOL    HW2 4416   0.584   3.728   2.036 -3.0836  0.5420  2.3987
 1533SOL     OW 4417   4.707   3.670   4.456  0.3862 -0.6106 -0.2521
 1533SOL    HW1 4418   4.693   3.698   4.361  0.9046 -0.7959 -0.3879
 1533SOL    HW2 4419   4.781   3.725   4.497  1.2785 -1.6246 -0.4641
 1534SOL     OW 4420   1.416   4.680   3.267 -0.3940 -0.2586  0.0351
 1534SOL    HW1 4421   1.335   4.645   3.313 -0.1527  1.4443  1.8748
 1534SOL    HW2 4422   1.388   4.734   3.187 -1.1464  0.8825  1.0420
 1535SOL     OW 4423   0.166   4.606   1.234 -0.2275 -0.1155 -0.0049
 1535SOL    HW1 4424   0.183   4.703   1.251  0.6878 -0.2688  0.0340
 1535SOL    HW2 4425   0.157   4.590   1.136 -0.3680  0.0069 -0.0121
 1536SOL     OW 4426   1.281   4.584   2.660 -0.0027 -0.0810  0.4955
 1536SOL    HW1 4427   1.268   4.681   2.682  2.2121  0.9942 -2.3939
 1536SOL    HW2 4428   1.196   4.534   2.680 -1.2485  2.4229  1.9532
 1537SOL     OW 4429   1.487   3.951   2.387  0.4200 -0.0577 -1.0630
 1537SOL    HW1 4430   1.426   3.875   2.411  0.4941  0.3444  0.4761
 1537SOL    HW2 4431   1.445   4.005   2.314 -0.5300 -0.4561 -0.8299
 1538SOL     OW 4432   0.557   2.955   2.374  0.2614 -0.2468 -0.1450
 1538SOL    HW1 4433   0.582   3.052   2.374  0.0937 -0.1994  0.4028
 1538SOL    HW2 4434   0.584   2.913   2.287  2.0455 -0.1348  0.3009
 1539SOL     OW 4435   4.542   0.908   4.273 -0.0128  0.0976 -0.1244
 1539SOL    HW1 4436   4.563   0.916   4.175  0.7046 -0.1294  0.0112
 1539SOL    HW2 4437   4.625   0.890   4.324 -0.7173 -2.5436  0.2442
 1540SOL     OW 4438   3.404   3.022   3.821 -0.0096  0.0779 -0.2129
 1540SOL    HW1 4439   3.493   2.981   3.801  0.4232  1.4504 -1.2361
 1540SOL    HW2 4440   3.377   3.000   3.915  0.2686 -2.3564 -0.6437
 1541SOL     OW 4441   4.766   4.029   3.563 -0.0176  0.0074  0.0963
 1541SOL    HW1 4442   4.683   3.975   3.572  0.0040 -0.0491 -0.0604
 1541SOL    HW2 4443   4.824   3.991   3.492  1.1183 -1.2124  1.6132
 1542SOL     OW 4444   0.118   3.826   2.745 -0.5807  0.0826 -0.0298
 1542SOL    HW1 4445   0.142   3.730   2.760 -1.0934  0.1764  1.5961
 1542SOL    HW2 4446   0.175   3.884   2.803  2.0501  1.0951 -3.3326
 1543SOL     OW 4447   2.794   2.812   4.370  0.0205 -0.1526  0.1604
 1543SOL    HW1 4448   2.765   2.771   4.456  2.1918 -1.3517  0.3850
 1543SOL    HW2 4449   2.889   2.842   4.377 -0.5481  2.1805 -1.0148
 1544SOL     OW 4450   1.081   3.317   4.085 -0.2031 -0.0711 -0.1711
 1544SOL    HW1 4451   1.153   3.295   4.151  1.6279  0.9754 -1.7085
 1544SOL    HW2 4452   1.074   3.243   4.018 -0.2086  0.0392 -0.2936
 1545SOL     OW 4453   0.680   0.203   3.663 -0.0116  0.2185  0.7348
 1545SOL    HW1 4454   0.599   0.235   3.614  0.3091 -0.1985 -0.1020
 1545SOL    HW2 4455   0.699   0.108   3.637  0.6947  0.2855  0.9711
 1546SOL     OW 4456   2.179   4.159   3.331 -0.0091 -0.0107  0.1851
 1546SOL    HW1 4457   2.092   4.206   3.316 -0.1297  0.6747  2.5567
 1546SOL    HW2 4458   2.244   4.223   3.371  0.7111 -1.1658  0.9124
 1547SOL     OW 4459   3.425   4.625   3.024  0.3396 -0.2468  0.4721
 1547SOL    HW1 4460   3.460   4.558   2.958 -0.2520 -0.6753  0.5917
 1547SOL    HW2 4461   3.494   4.641   3.094  0.9894  0.2311 -0.2505
 1548SOL     OW 4462   1.347   2.040   2.249  0.5312  0.0586 -0.4447
 1548SOL    HW1 4463   1.285   1.964   2.269  1.2406 -0.6572 -0.9105
 1548SOL    HW2 4464   1.441   2.015   2.275  0.6460  1.1199  0.2479
 1549SOL     OW 4465   2.620   4.476   1.673  0.0406 -0.8836  0.2219
 1549SOL    HW1 4466   2.703   4.525   1.646 -1.3437  1.7097  0.3634
 1549SOL    HW2 4467   2.580   4.430   1.594 -1.0315  2.0553 -1.0469
 1550SOL     OW 4468   1.606   0.047   3.822  0.0210 -0.0637 -0.4413
 1550SOL    HW1 4469   1.620   0.143   3.846 -3.8835  0.4041  0.5921
 1550SOL    HW2 4470   1.613  -0.009   3.904 -0.6738 -0.2456 -0.5065
 1551SOL     OW 4471   3.866   4.989   3.362  0.2946  0.4222  0.9984
 1551SOL    HW1 4472   3.813   4.969   3.280 -1.2065  1.5884  1.6342
 1551SOL    HW2 4473   3.868   4.909   3.421 -1.7736  0.6597  1.4694
 1552SOL     OW 4474   0.261   0.710   2.954  0.3345  0.3880 -0.6214
 1552SOL    HW1 4475   0.299   0.764   3.030 -0.2793  0.4647 -0.3582
 1552SOL    HW2 4476   0.334   0.681   2.894  0.6408  2.0139 -1.0901
 1553SOL     OW 4477   2.066   0.027   3.313 -0.5659  0.6394  0.6884
 1553SOL    HW1 4478   2.033  -0.018   3.231 -0.8466  2.4480 -0.2349
 1553SOL    HW2 4479   2.160   0.060   3.298 -1.1786  2.4060  0.4488
 1554SOL     OW 4480   0.019   3.261   3.012  0.2778  0.4176  0.1292
 1554SOL    HW1 4481   0.023   3.343   3.069  1.4721  0.3661  0.1461
 1554SOL    HW2 4482   0.048   3.182   3.066 -1.5444 -0.1656  0.3262
 1555SOL     OW 4483   1.678   4.730   4.489  0.5617  0.6896 -0.1823
 1555SOL    HW1 4484   1.743   4.802   4.509  0.6982  1.0125 -1.6537
 1555SOL    HW2 4485   1.727   4.645   4.467  0.3959 -0.2523  2.6989
 1556SOL     OW 4486   0.517   0.052   0.897  0.1547 -0.4332 -0.2060
 1556SOL    HW1 4487   0.601   0.098   0.928 -0.3731  0.1930  0.3398
 1556SOL    HW2 4488   0.516   0.048   0.797 -0.4317  2.0588 -0.3662
 1557SOL     OW 4489   4.551   3.800   2.109 -0.0313  0.6721 -0.4076
 1557SOL    HW1 4490   4.565   3.867   2.183  0.9376 -1.9233  1.9190
 1557SOL    HW2 4491   4.477   3.738   2.135 -0.9174  0.7726 -2.5343
 1558SOL     OW 4492   0.271   3.943   2.278  0.3645 -0.5675 -0.0968
 1558SOL    HW1 4493   0.366   3.970   2.287  0.1784 -0.3385  1.3990
 1558SOL    HW2 4494   0.229   3.937   2.369 -0.9926 -0.8469 -0.7189
 1559SOL     OW 4495   0.945   4.471   2.766  0.5093 -0.5874 -0.3159
 1559SOL    HW1 4496   0.944   4.402   2.838 -1.1142 -1.1096 -0.8052
 1559SOL    HW2 4497   0.896   4.553   2.796 -2.0517 -1.5809 -1.4780
 1560SOL     OW 4498   4.891   3.234   0.819 -0.2355  0.1570 -0.3552
 1560SOL    HW1 4499   4.827   3.180   0.765 -1.0346  1.7656 -1.0855
 1560SOL    HW2 4500   4.982   3.227   0.779 -0.4165 -0.2942 -0.7011
 1561SOL     OW 4501   4.521   0.293   1.277  0.3510 -0.1017  0.6644
 1561SOL    HW1 4502   4.599   0.236   1.303  0.3143  0.5333  2.2944
 1561SOL    HW2 4503   4.553   0.378   1.236  0.5415  0.1025  1.2188
 1562SOL     OW 4504   0.202   2.880   1.956 -0.2193  0.1430 -0.3060
 1562SOL    HW1 4505   0.223   2.809   2.023 -1.5553  0.9235  1.0124
 1562SOL    HW2 4506   0.280   2.893   1.895  1.1925 -0.3506  1.3298
 1563SOL     OW 4507   1.276   4.601   4.606 -0.3783 -0.7468  0.5004
 1563SOL    HW1 4508   1.300   4.550   4.688 -0.2930  1.4791  1.9486
 1563SOL    HW2 4509   1.187   4.645   4.618 -0.1179  0.0619 -0.3617
 1564SOL     OW 4510   0.199   3.726   3.865  0.0357 -0.2636  0.4443
 1564SOL    HW1 4511   0.276   3.710   3.802 -2.1992 -1.0397 -2.3161
 1564SOL    HW2 4512   0.198   3.823   3.891  1.2959 -0.0047 -0.3592
 1565SOL     OW 4513   3.175   4.022   0.965  0.5892  0.3148 -0.3720
 1565SOL    HW1 4514   3.159   4.054   0.871  0.7900  4.2016  0.7102
 1565SOL    HW2 4515   3.273   4.021   0.984  0.6985 -2.5260 -0.7227
 1566SOL     OW 4516   0.339   4.680   2.945 -0.3451  0.8249 -0.3329
 1566SOL    HW1 4517   0.276   4.607   2.972 -0.1585  0.5173 -0.7239
 1566SOL    HW2 4518   0.422   4.675   3.000 -0.3102  0.7093 -0.3965
 1567SOL     OW 4519   2.905   3.512   2.631 -0.2011  0.0201 -0.2318
 1567SOL    HW1 4520   2.805   3.513   2.637 -0.2105 -1.0808  0.0574
 1567SOL    HW2 4521   2.944   3.555   2.713 -0.4303  0.3401 -0.2891
 1568SOL     OW 4522   1.841   4.891   2.278 -0.0146 -0.4823  0.1222
 1568SOL    HW1 4523   1.870   4.801   2.246  0.0171 -0.0262 -1.1984
 1568SOL    HW2 4524   1.833   4.953   2.200  0.3204  0.7676  1.0451
 1569SOL     OW 4525   0.059   3.458   4.891  0.0295  0.1014  0.6008
 1569SOL    HW1 4526   0.041   3.361   4.905  1.1670  0.0571  1.9477
 1569SOL    HW2 4527   0.028   3.485   4.800 -0.9914 -1.3403  0.4972
 1570SOL     OW 4528   0.902   4.075   1.662 -0.5863 -0.4608 -0.2218
 1570SOL    HW1 4529   0.958   4.002   1.624 -0.2574  0.1115 -0.8654
 1570SOL    HW2 4530   0.842   4.038   1.733  0.0407 -1.2242 -0.0791
 1571SOL     OW 4531   0.824   2.267   3.607  0.0741  0.5061 -0.0522
 1571SOL    HW1 4532   0.912   2.310   3.586  0.6970 -0.5450  0.3331
 1571SOL    HW2 4533   0.793   2.214   3.529  0.2685  0.0943  0.1448
 1572SOL     OW 4534   0.144   4.474   3.003 -0.0034  0.4257 -0.0253
 1572SOL    HW1 4535   0.109   4.480   3.096 -0.0126 -1.6184  0.1428
 1572SOL    HW2 4536   0.081   4.521   2.941 -1.0405  0.1270  0.7586
 1573SOL     OW 4537   0.846   3.560   1.885  0.5637 -0.2051  0.0280
 1573SOL    HW1 4538   0.814   3.645   1.928 -0.4824  0.4611 -1.9507
 1573SOL    HW2 4539   0.874   3.579   1.791  1.4449 -1.8620 -0.0731
 1574SOL     OW 4540   4.204   3.856   2.324 -0.2933  0.1410  0.3286
 1574SOL    HW1 4541   4.283   3.885   2.378 -0.0299 -1.2809  0.7406
 1574SOL    HW2 4542   4.227   3.775   2.271 -1.0614  0.5495 -0.6664
 1575SOL     OW 4543   4.959   3.372   4.394 -0.1532 -0.2871 -0.0609
 1575SOL    HW1 4544   4.928   3.399   4.303 -0.0242 -0.3538 -0.1250
 1575SOL    HW2 4545   5.053   3.402   4.408  0.1277 -1.0425 -0.2865
 1576SOL     OW 4546   1.444   3.775   1.975 -0.3630 -0.1845  0.0058
 1576SOL    HW1 4547   1.524   3.733   1.932 -0.6291 -0.3483 -0.3363
 1576SOL    HW2 4548   1.428   3.866   1.936  0.5360  0.4766  1.1329
 1577SOL     OW 4549   0.585   4.346   3.822 -0.4519 -0.2006 -0.3657
 1577SOL    HW1 4550   0.606   4.378   3.914 -1.4151 -1.3503  0.2862
 1577SOL    HW2 4551   0.501   4.391   3.790 -0.9457 -0.8834 -0.0648
 1578SOL     OW 4552   1.730   4.269   1.177  0.3238  0.3027 -0.4508
 1578SOL    HW1 4553   1.703   4.173   1.182  0.1734  0.3532 -0.2959
 1578SOL    HW2 4554   1.714   4.304   1.085 -1.3395  0.6927 -0.0485
 1579SOL     OW 4555   2.740   3.899   1.580 -0.0501 -0.0102  0.0702
 1579SOL    HW1 4556   2.833   3.864   1.574 -0.6174 -1.4639 -0.9773
 1579SOL    HW2 4557   2.684   3.834   1.633 -0.8967 -0.2048 -1.0125
 1580SOL     OW 4558   1.517   4.135   1.637 -0.6073  0.0884  0.3281
 1580SOL    HW1 4559   1.534   4.186   1.552 -0.6333 -1.6149 -0.7459
 1580SOL    HW2 4560   1.462   4.055   1.616 -3.0991  1.1209  2.4407
 1581SOL     OW 4561   1.668   4.550   3.581  0.3749  0.0923  0.6638
 1581SOL    HW1 4562   1.734   4.475   3.571 -0.0556 -0.4008  1.3978
 1581SOL    HW2 4563   1.579   4.520   3.549  0.4271  0.6607 -0.0427
 1582SOL     OW 4564   0.707   3.808   3.249 -0.6460  0.2095  0.2565
 1582SOL    HW1 4565   0.783   3.861   3.285  0.5785 -0.2625 -1.5069
 1582SOL    HW2 4566   0.716   3.713   3.279  0.0147 -0.0444 -0.6863
 1583SOL     OW 4567   1.251   4.655   0.214  0.1838  0.2575 -0.3397
 1583SOL    HW1 4568   1.176   4.693   0.267 -1.0149 -1.4074 -0.7883
 1583SOL    HW2 4569   1.323   4.624   0.276 -0.7503 -0.7340  0.2805
 1584SOL     OW 4570   4.544   4.168   4.345  0.0388  0.0985  0.2449
 1584SOL    HW1 4571   4.584   4.103   4.409  1.3234 -1.8004 -2.3063
 1584SOL    HW2 4572   4.450   4.141   4.324 -0.2510  0.5009  0.9756
 1585SOL     OW 4573   4.266   0.442   0.349 -0.3055  0.3705 -0.2282
 1585SOL    HW1 4574   4.189   0.391   0.387  0.5521 -1.4264 -0.8162
 1585SOL    HW2 4575   4.342   0.380   0.329  0.3638  1.6669 -2.0933
 1586SOL     OW 4576   1.457   3.529   4.889 -0.5116 -0.3058  0.6413
 1586SOL    HW1 4577   1.375   3.553   4.838 -1.2862  0.1815  2.0632
 1586SOL    HW2 4578   1.535   3.579   4.851 -1.0318 -0.0845 -0.1630
 1587SOL     OW 4579   1.722   1.387   3.823  0.1192 -0.5943 -0.6658
 1587SOL    HW1 4580   1.623   1.370   3.827  0.6306 -4.3550  0.1657
 1587SOL    HW2 4581   1.752   1.383   3.728 -0.3974 -0.3326 -0.8453
 1588SOL     OW 4582   2.333   0.498   3.428  0.0504 -0.5040  0.0682
 1588SOL    HW1 4583   2.236   0.508   3.405  0.5601  2.6474 -1.1921
 1588SOL    HW2 4584   2.360   0.570   3.491  2.0964  0.2993 -1.6173
 1589SOL     OW 4585   0.086   1.573   3.916  0.3192  0.6903  0.0559
 1589SOL    HW1 4586   0.095   1.491   3.860 -2.5168  0.4996 -0.2781
 1589SOL    HW2 4587   0.058   1.547   4.009 -1.9314  1.2395 -0.4054
 1590SOL     OW 4588   3.048   4.556   3.883 -0.8210 -0.2531  0.7034
 1590SOL    HW1 4589   3.100   4.640   3.868  0.8708 -1.2294  0.7693
 1590SOL    HW2 4590   3.019   4.551   3.979 -0.1795 -0.1287  0.9075
 1591SOL     OW 4591   4.325   4.611   0.792 -0.1792 -0.1723  0.0338
 1591SOL    HW1 4592   4.279   4.634   0.707 -0.9050  1.6609  0.8720
 1591SOL    HW2 4593   4.424   4.603   0.776 -0.0274  2.2722 -0.6387
 1592SOL     OW 4594   1.616   3.543   0.225 -0.6717  0.1493  0.0485
 1592SOL    HW1 4595   1.654   3.603   0.295 -2.4980  0.1686  1.0774
 1592SOL    HW2 4596   1.687   3.478   0.195  0.5758  1.1325  0.7710
 1593SOL     OW 4597   1.870   0.524   0.289  0.2827  0.1774  0.3226
 1593SOL    HW1 4598   1.896   0.605   0.236 -0.1390  1.4774  1.9876
 1593SOL    HW2 4599   1.941   0.504   0.356 -0.2260  0.0143  0.8193
 1594SOL     OW 4600   2.900   4.924   3.225  0.0783  0.4401  0.6175
 1594SOL    HW1 4601   2.867   5.015   3.249 -0.2047 -0.2489  3.1752
 1594SOL    HW2 4602   2.856   4.856   3.284  0.2956 -1.3870 -1.2023
 1595SOL     OW 4603   1.207   3.792   4.775  0.3075  0.4602  0.1709
 1595SOL    HW1 4604   1.134   3.781   4.842  0.0781 -1.4220 -0.3323
 1595SOL    HW2 4605   1.270   3.863   4.806 -0.4068  0.4187  1.8148
 1596SOL     OW 4606   0.397   4.149   4.378 -0.3564 -0.0487  0.2595
 1596SOL    HW1 4607   0.405   4.062   4.428 -2.5771 -0.4638 -0.0083
 1596SOL    HW2 4608   0.307   4.189   4.394  0.1281  1.5291 -0.7303
 1597SOL     OW 4609   2.969   0.727   2.041  0.1927  0.5456  0.3222
 1597SOL    HW1 4610   3.046   0.697   1.985 -0.4269 -1.5194  0.5202
 1597SOL    HW2 4611   2.974   0.685   2.131 -1.5343 -0.2491  0.0927
 1598SOL     OW 4612   0.939   3.391   3.827  0.3414  0.6618  0.1873
 1598SOL    HW1 4613   0.989   3.378   3.912 -0.2652 -1.1195  0.3161
 1598SOL    HW2 4614   0.841   3.400   3.846  0.3228  1.6089 -0.2490
 1599SOL     OW 4615   0.524   4.202   0.068 -0.4580  0.1168  0.4173
 1599SOL    HW1 4616   0.452   4.261   0.031  0.9295  1.4309 -0.3242
 1599SOL    HW2 4617   0.610   4.222   0.020  0.1243 -2.3671  0.3233
 1600SOL     OW 4618   1.238   4.614   2.045  0.4414 -0.1047  0.0456
 1600SOL    HW1 4619   1.161   4.659   2.089 -0.6646 -2.0393  0.2356
 1600SOL    HW2 4620   1.324   4.649   2.082 -0.3821  1.0280  0.9252
 1601SOL     OW 4621   1.172   4.537   3.331 -0.2601 -0.2828 -0.2093
 1601SOL    HW1 4622   1.157   4.440   3.347 -0.8933 -0.2005 -0.2599
 1601SOL    HW2 4623   1.100   4.590   3.375  0.0155  0.1573 -0.2753
 1602SOL     OW 4624   0.406   0.414   2.613  0.3270 -0.2740 -0.2109
 1602SOL    HW1 4625   0.359   0.444   2.530 -1.2522 -1.2563  0.2668
 1602SOL    HW2 4626   0.351   0.343   2.658  0.5882  0.9678  2.2353
 1603SOL     OW 4627   2.015   4.959   4.819 -0.2141  0.1578  0.7475
 1603SOL    HW1 4628   1.999   5.053   4.848 -0.7324 -0.3098  2.0659
 1603SOL    HW2 4629   2.097   4.923   4.865  1.0872  0.5250 -1.1671
 1604SOL     OW 4630   2.147   4.799   0.554 -0.0693  0.3341  0.2445
 1604SOL    HW1 4631   2.235   4.846   0.555  0.0304  0.1774 -0.5853
 1604SOL    HW2 4632   2.098   4.822   0.470  1.0618 -2.9815 -1.5101
 1605SOL     OW 4633   0.740   4.364   4.093  0.2328 -0.0131  0.1290
 1605SOL    HW1 4634   0.703   4.434   4.153  1.1062  0.8882 -0.3488
 1605SOL    HW2 4635   0.835   4.386   4.070  0.0357 -0.5034 -1.3053
 1606SOL     OW 4636   2.858   1.258   4.513  0.1290 -0.1845 -0.0462
 1606SOL    HW1 4637   2.861   1.180   4.576 -1.5223  2.1144  3.1891
 1606SOL    HW2 4638   2.785   1.243   4.446 -0.0787 -1.4716  0.4269
 1607SOL     OW 4639   2.594   4.948   3.570 -0.1324 -0.3797 -0.5930
 1607SOL    HW1 4640   2.558   4.991   3.487  1.4507  3.6309  0.5346
 1607SOL    HW2 4641   2.680   4.901   3.548  0.7371  1.3822 -1.2251
 1608SOL     OW 4642   1.605   0.716   4.078  0.4444  0.5617  0.2221
 1608SOL    HW1 4643   1.578   0.710   3.982  1.2836  0.3790 -0.0086
 1608SOL    HW2 4644   1.524   0.729   4.134 -0.1267 -0.0027 -0.4500
 1609SOL     OW 4645   0.569   0.036   4.486  0.8948  0.2058  0.7152
 1609SOL    HW1 4646   0.491  -0.022   4.513  1.5231 -1.5581 -1.0114
 1609SOL    HW2 4647   0.537   0.130   4.473 -0.8500 -0.3578  0.5971
 1610SOL     OW 4648   2.391   4.616   4.096 -0.0447 -0.1726 -0.4228
 1610SOL    HW1 4649   2.369   4.620   3.998 -1.1359  2.3217 -0.1489
 1610SOL    HW2 4650   2.410   4.522   4.122 -2.2167 -1.3022 -2.5251
 1611SOL     OW 4651   1.298   4.256   4.515  0.7900  0.0584 -0.3102
 1611SOL    HW1 4652   1.349   4.312   4.450  0.7470  0.9625  0.3974
 1611SOL    HW2 4653   1.336   4.164   4.519  1.6897  0.4168 -0.5502
 1612SOL     OW 4654   2.677   4.514   4.868  0.2762  0.5928 -0.0129
 1612SOL    HW1 4655   2.621   4.490   4.788 -1.6062  0.3342  1.3240
 1612SOL    HW2 4656   2.618   4.534   4.946  2.0553  1.1526  1.2661
 1613SOL     OW 4657   0.251   4.358   0.266 -0.0918 -0.3109 -0.1406
 1613SOL    HW1 4658   0.330   4.410   0.299 -0.6866  0.5170  0.0098
 1613SOL    HW2 4659   0.265   4.332   0.170 -0.4444  1.4831 -0.7048
 1614SOL     OW 4660   1.948   0.174   3.759  0.4444 -0.2931 -0.2600
 1614SOL    HW1 4661   1.887   0.248   3.730  0.8370  1.0169  2.0132
 1614SOL    HW2 4662   1.968   0.115   3.681 -1.8057  0.5937 -1.6089
 1615SOL     OW 4663   3.276   0.203   4.072  0.1715 -0.5318  0.6888
 1615SOL    HW1 4664   3.187   0.164   4.048 -0.1893  0.2883  0.6774
 1615SOL    HW2 4665   3.319   0.240   3.991  0.6284 -1.1222  0.6560
 1616SOL     OW 4666   0.110   2.720   3.407  0.0505 -0.2924  0.5409
 1616SOL    HW1 4667   0.106   2.635   3.459 -1.0655  0.9340  2.5930
 1616SOL    HW2 4668   0.205   2.741   3.384  0.5009 -1.2923  1.3938
 1617SOL     OW 4669   4.905   4.949   3.719 -0.2197 -0.1923  0.2110
 1617SOL    HW1 4670   4.906   4.918   3.624  0.3820  0.4604 -0.0062
 1617SOL    HW2 4671   4.817   4.929   3.760 -0.0407 -1.6737 -0.0842
 1618SOL     OW 4672   0.347   4.955   3.677 -0.4840  0.2668  0.2547
 1618SOL    HW1 4673   0.314   5.005   3.596  1.9505  0.6495 -0.6173
 1618SOL    HW2 4674   0.388   5.020   3.741  1.2611 -0.3752 -0.1407
 1619SOL     OW 4675   4.742   0.559   4.402 -0.0875 -0.5446  0.7882
 1619SOL    HW1 4676   4.771   0.654   4.401  0.4555 -0.6890 -0.9274
 1619SOL    HW2 4677   4.645   0.553   4.378  0.0008 -0.4339  0.3901
 1620SOL     OW 4678   1.658   1.576   4.202  0.2469 -0.1396  0.4226
 1620SOL    HW1 4679   1.634   1.485   4.236 -0.8508 -0.3407 -0.7792
 1620SOL    HW2 4680   1.647   1.643   4.275 -0.2771 -0.7872  0.9548
 1621SOL     OW 4681   3.820   2.448   2.981 -0.7594  0.0986  0.0606
 1621SOL    HW1 4682   3.818   2.534   2.930 -0.6009 -0.6174 -1.1835
 1621SOL    HW2 4683   3.775   2.461   3.070  0.1887  1.7277  0.3407
 1622SOL     OW 4684   4.254   3.896   4.567  0.1435  1.0585 -0.3100
 1622SOL    HW1 4685   4.216   3.953   4.640 -1.9300 -0.5256 -0.0656
 1622SOL    HW2 4686   4.327   3.839   4.604 -0.7729  0.3929  0.5157
 1623SOL     OW 4687   0.380   4.129   4.128  0.6877  0.2123  0.2366
 1623SOL    HW1 4688   0.320   4.206   4.103 -0.2450 -0.3020  0.8203
 1623SOL    HW2 4689   0.401   4.134   4.226  0.3100 -0.4628  0.3632
 1624SOL     OW 4690   3.710   4.646   2.657 -0.0622 -0.3040  0.2339
 1624SOL    HW1 4691   3.761   4.566   2.625 -0.5773 -1.4273  2.0497
 1624SOL    HW2 4692   3.640   4.670   2.590  0.7191 -0.7979 -0.7758
 1625SOL     OW 4693   1.216   3.918   2.529 -0.2611 -0.0280  0.2768
 1625SOL    HW1 4694   1.298   3.946   2.579 -0.0884  2.0228 -1.0257
 1625SOL    HW2 4695   1.147   3.885   2.593  1.5137 -1.7518  1.4075
 1626SOL     OW 4696   0.954   0.317   1.139 -0.3210  0.0806  0.4411
 1626SOL    HW1 4697   0.914   0.409   1.131  0.1761  0.1917 -1.1005
 1626SOL    HW2 4698   1.053   0.323   1.127 -0.2676 -0.6453  0.4776
 1627SOL     OW 4699   0.647   4.296   4.466 -0.1544 -0.1492  0.0444
 1627SOL    HW1 4700   0.602   4.224   4.413 -0.7330  0.2652 -0.0425
 1627SOL    HW2 4701   0.744   4.300   4.441  0.4628 -2.4373  1.7189
 1628SOL     OW 4702   0.065   0.703   3.966 -0.5438 -0.6482 -0.2140
 1628SOL    HW1 4703   0.140   0.639   3.956 -0.3182 -0.4119 -0.0392
 1628SOL    HW2 4704   0.081   0.761   4.046  0.3797  1.1307 -1.6279
 1629SOL     OW 4705   1.609   0.199   0.307  0.3685  0.6539 -0.0307
 1629SOL    HW1 4706   1.571   0.291   0.317  0.4668  0.5105  2.2176
 1629SOL    HW2 4707   1.685   0.201   0.243 -0.8186  1.7348 -1.4938
 1630SOL     OW 4708   1.282   3.540   3.631 -0.2600  0.0233  0.3288
 1630SOL    HW1 4709   1.260   3.596   3.712 -0.3065 -0.1502  0.4351
 1630SOL    HW2 4710   1.311   3.449   3.659  0.5550  0.2296  0.1826
 1631SOL     OW 4711   2.122   3.341   4.629 -0.0584  0.9592  0.6476
 1631SOL    HW1 4712   2.056   3.416   4.626 -0.9047  0.2398 -1.3461
 1631SOL    HW2 4713   2.212   3.376   4.653 -0.3472  2.7119 -0.5694
 1632SOL     OW 4714   1.299   0.295   4.584  0.1306  0.2822 -0.2134
 1632SOL    HW1 4715   1.212   0.246   4.594 -0.4521  1.4023  0.5397
 1632SOL    HW2 4716   1.372   0.245   4.630 -0.5929  0.4517  1.1654
 1633SOL     OW 4717   0.615   1.129   4.112  0.3439  0.0571 -0.2202
 1633SOL    HW1 4718   0.667   1.148   4.196  0.6335  0.4358 -0.4791
 1633SOL    HW2 4719   0.646   1.191   4.040 -0.2298  0.0489 -0.4762
 1634SOL     OW 4720   1.565   4.048   1.150  0.1033 -0.4113 -0.7710
 1634SOL    HW1 4721   1.519   3.996   1.078  0.9689 -0.5231 -1.2538
 1634SOL    HW2 4722   1.615   3.986   1.210  0.5861 -0.2001 -0.9500
 1635SOL     OW 4723   2.146   4.880   0.160 -0.1981  0.1406 -0.0943
 1635SOL    HW1 4724   2.120   4.973   0.133  0.9584  0.1641 -1.2303
 1635SOL    HW2 4725   2.117   4.863   0.254  0.0091  1.8145  0.2964
 1636SOL     OW 4726   0.593   0.498   4.581 -0.4705  0.4723  0.1074
 1636SOL    HW1 4727   0.594   0.419   4.521  0.7244  0.8612 -0.4188
 1636SOL    HW2 4728   0.514   0.493   4.642 -1.0956 -0.4815 -0.7539
 1637SOL     OW 4729   4.426   4.263   3.818  0.4516 -0.3564 -0.4136
 1637SOL    HW1 4730   4.510   4.283   3.768  0.6483 -0.1349  0.0026
 1637SOL    HW2 4731   4.427   4.167   3.847  0.9307 -0.1455  0.2842
 1638SOL     OW 4732   1.348   0.198   2.850 -0.7117 -0.7106 -0.1978
 1638SOL    HW1 4733   1.354   0.280   2.907  2.2622 -0.9725  0.0292
 1638SOL    HW2 4734   1.314   0.223   2.759 -0.9125  0.5652  0.2154
 1639SOL     OW 4735   0.388   4.774   0.305 -0.1878 -0.3249  0.1743
 1639SOL    HW1 4736   0.361   4.683   0.338 -0.2021 -0.3014  0.2276
 1639SOL    HW2 4737   0.381   4.840   0.380 -1.5106 -0.0081 -0.2107
 1640SOL     OW 4738   1.021   4.404   4.088  0.3123  0.2537  0.1233
 1640SOL    HW1 4739   1.106   4.380   4.041  0.0753  1.5967 -1.0622
 1640SOL    HW2 4740   1.033   4.392   4.187  1.4318 -0.8500 -0.1246
 1641SOL     OW 4741   0.850   2.667   2.240  0.5310  0.5893 -0.3425
 1641SOL    HW1 4742   0.890   2.600   2.179 -0.3451  0.5039 -0.8466
 1641SOL    HW2 4743   0.838   2.754   2.191  1.9275  1.2314  0.3838
 1642SOL     OW 4744   0.470   4.505   3.226 -0.1889 -0.1868  0.5621
 1642SOL    HW1 4745   0.461   4.412   3.192 -0.4128 -0.6538  1.8182
 1642SOL    HW2 4746   0.565   4.533   3.222 -0.2207 -0.1868 -0.4884
 1643SOL     OW 4747   0.091   1.684   4.998  0.5331  0.0044 -0.1012
 1643SOL    HW1 4748   0.160   1.635   5.051  0.2270  0.6051  0.8792
 1643SOL    HW2 4749   0.133   1.762   4.952  0.0359  2.4347  3.1880
 1644SOL     OW 4750   2.388   4.892   3.751 -0.0184  0.1533 -0.0996
 1644SOL    HW1 4751   2.473   4.887   3.699 -0.2238  0.2784 -0.4520
 1644SOL    HW2 4752   2.336   4.972   3.721 -1.3920 -1.2451 -1.6280
 1645SOL     OW 4753   2.580   1.383   4.303 -0.4126 -0.1579  0.6345
 1645SOL    HW1 4754   2.593   1.284   4.296  0.6088 -0.0294  0.5958
 1645SOL    HW2 4755   2.485   1.402   4.329 -0.7036 -1.1307  0.3467
 1646SOL     OW 4756   3.446   1.107   2.655  0.2515  0.1220  0.0917
 1646SOL    HW1 4757   3.453   1.040   2.581  1.8994 -1.6637  1.7046
 1646SOL    HW2 4758   3.530   1.161   2.659  1.1898 -1.3232  1.8896
 1647SOL     OW 4759   4.285   4.084   4.344  0.1182 -0.0640 -0.1410
 1647SOL    HW1 4760   4.243   4.050   4.428  2.0390 -1.7657  0.2183
 1647SOL    HW2 4761   4.228   4.156   4.305 -0.8199  0.8181  2.6204
 1648SOL     OW 4762   3.966   4.654   4.188 -0.7098 -0.1698  0.5070
 1648SOL    HW1 4763   4.042   4.633   4.250  0.7381  0.3237 -1.0059
 1648SOL    HW2 4764   3.890   4.692   4.240  0.8226  1.2080  1.8788
 1649SOL     OW 4765   4.498   3.995   3.886  0.5857 -0.0777  0.8014
 1649SOL    HW1 4766   4.563   4.030   3.953  0.1714 -0.1798  1.2627
 1649SOL    HW2 4767   4.410   3.978   3.931  0.0732  0.5947  0.0740
 1650SOL     OW 4768   0.525   4.960   4.929 -0.4388  0.3949  0.6390
 1650SOL    HW1 4769   0.432   4.973   4.894 -0.1410  2.7777  0.5538
 1650SOL    HW2 4770   0.522   4.953   5.029 -0.8333 -1.5236  0.5396
 1651SOL     OW 4771   1.579   3.517   0.637 -0.2272 -0.0276 -0.0349
 1651SOL    HW1 4772   1.604   3.609   0.667  4.2756 -0.6334 -1.2399
 1651SOL    HW2 4773   1.578   3.513   0.537 -1.6094 -1.0747 -0.0145
 1652SOL     OW 4774   2.426   4.009   1.898 -0.4172 -0.1660  0.3562
 1652SOL    HW1 4775   2.522   4.026   1.874 -0.5995  0.9669  0.3866
 1652SOL    HW2 4776   2.422   3.942   1.972  0.2941 -1.1015 -0.4135
 1653SOL     OW 4777   3.823   3.728   4.245  0.0789 -0.1444 -0.1203
 1653SOL    HW1 4778   3.896   3.660   4.239 -1.2097 -1.5006 -1.0963
 1653SOL    HW2 4779   3.794   3.737   4.340 -0.0896 -1.3807 -0.0385
 1654SOL     OW 4780   0.169   4.599   4.663 -0.9358  0.1983 -0.2243
 1654SOL    HW1 4781   0.103   4.644   4.723 -0.3917  1.0850 -0.2835
 1654SOL    HW2 4782   0.254   4.651   4.661 -0.6311 -0.3089 -1.0497
 1655SOL     OW 4783   0.824   2.934   4.338  0.0988 -0.4413 -0.8852
 1655SOL    HW1 4784   0.907   2.987   4.315  0.6492 -0.5457  0.7492
 1655SOL    HW2 4785   0.812   2.933   4.437 -0.4101 -2.6249 -0.9220
 1656SOL     OW 4786   4.406   0.834   0.302 -0.6501  0.3937 -0.4726
 1656SOL    HW1 4787   4.412   0.774   0.382  1.7497  0.9733 -0.1304
 1656SOL    HW2 4788   4.374   0.924   0.330 -0.9430  0.2591 -0.3720
 1657SOL     OW 4789   0.076   0.202   4.390  0.3585  0.4592  0.3213
 1657SOL    HW1 4790  -0.010   0.206   4.441  0.1424  1.1842 -0.0872
 1657SOL    HW2 4791   0.135   0.277   4.419  0.8375 -0.0077  0.5623
 1658SOL     OW 4792   3.405   3.099   0.577 -0.3129 -0.3671 -0.1175
 1658SOL    HW1 4793   3.472   3.113   0.650 -0.0869 -0.7515 -0.2472
 1658SOL    HW2 4794   3.442   3.134   0.491 -0.6564  0.2576 -0.0117
 1659SOL     OW 4795   0.074   4.340   3.400  0.1247  0.3670 -0.0872
 1659SOL    HW1 4796   0.074   4.406   3.475  0.1885 -0.5993  0.7789
 1659SOL    HW2 4797   0.003   4.365   3.334 -1.3532  0.0931  1.3384
 1660SOL     OW 4798   2.715   4.153   1.450 -0.1842 -0.2528  0.3005
 1660SOL    HW1 4799   2.718   4.138   1.351 -5.1108  1.7404 -0.4236
 1660SOL    HW2 4800   2.728   4.066   1.497  0.0848 -1.6438 -2.1626
 1661SOL     OW 4801   0.103   3.805   0.183  0.1225  0.1784  0.5198
 1661SOL    HW1 4802   0.054   3.745   0.119  1.2832 -0.9918  0.6851
 1661SOL    HW2 4803   0.181   3.847   0.136  0.4791 -0.0244  0.9234
 1662SOL     OW 4804   0.686   3.454   3.891 -0.1109 -0.5141 -0.2459
 1662SOL    HW1 4805   0.634   3.380   3.935  0.3833 -1.2800 -0.9310
 1662SOL    HW2 4806   0.638   3.541   3.907 -2.5158 -1.3649 -2.1681
 1663SOL     OW 4807   0.041   4.502   2.570  0.0364  0.1753 -0.1537
 1663SOL    HW1 4808  -0.000   4.547   2.649  0.1781 -0.5172  0.3237
 1663SOL    HW2 4809  -0.009   4.527   2.487 -0.8421 -0.0186  0.3109
 1664SOL     OW 4810   0.616   4.129   2.592  0.2653  0.3866  0.3018
 1664SOL    HW1 4811   0.617   4.223   2.626  1.0272  0.9965 -1.2953
 1664SOL    HW2 4812   0.705   4.087   2.608 -0.4997 -0.5823  2.2741
 1665SOL     OW 4813   0.199   0.314   4.734 -0.7346 -0.2323  0.1535
 1665SOL    HW1 4814   0.212   0.215   4.734  0.0480 -0.1487  1.8679
 1665SOL    HW2 4815   0.131   0.339   4.803  0.4286  0.5783  1.0254
 1666SOL     OW 4816   2.012   4.438   2.771 -0.3357  0.0042  0.0979
 1666SOL    HW1 4817   2.108   4.432   2.801  0.0691 -0.8013 -1.2389
 1666SOL    HW2 4818   1.993   4.530   2.737 -0.3686  0.4795  1.3281
 1667SOL     OW 4819   2.621   4.612   3.690 -0.3777 -0.0957  0.0548
 1667SOL    HW1 4820   2.574   4.571   3.768  1.1197 -1.0554  0.4938
 1667SOL    HW2 4821   2.712   4.643   3.718 -0.1136  0.2494 -1.1260
 1668SOL     OW 4822   1.786   4.743   0.238 -0.1920 -0.0952  0.0565
 1668SOL    HW1 4823   1.702   4.798   0.236 -0.1614 -0.0261  0.4377
 1668SOL    HW2 4824   1.803   4.704   0.148 -0.8423 -0.4262  0.0733
 1669SOL     OW 4825   3.115   2.785   1.794 -0.1566 -0.3416  0.0402
 1669SOL    HW1 4826   3.184   2.772   1.865 -1.3039 -0.0559  1.2475
 1669SOL    HW2 4827   3.043   2.716   1.803  0.7867 -1.7907 -2.3232
 1670SOL     OW 4828   0.866   2.919   4.670 -0.0157  0.5771 -0.3268
 1670SOL    HW1 4829   0.862   2.997   4.732  1.9866 -0.7884  1.6567
 1670SOL    HW2 4830   0.959   2.884   4.665 -0.7809 -1.5178 -1.4061
 1671SOL     OW 4831   1.659   1.923   4.042  0.0087  0.1865  0.0717
 1671SOL    HW1 4832   1.751   1.893   4.068  0.2439  0.9828  0.2111
 1671SOL    HW2 4833   1.666   1.987   3.966 -0.4102  0.4245  0.2315
 1672SOL     OW 4834   1.254   0.058   0.839  0.0711 -0.0109  0.1006
 1672SOL    HW1 4835   1.211  -0.022   0.881  1.1643 -0.9678 -0.5610
 1672SOL    HW2 4836   1.321   0.097   0.903 -1.8721  1.6559  1.2510
 1673SOL     OW 4837   1.165   3.796   3.353  0.3831  0.2726 -0.0295
 1673SOL    HW1 4838   1.242   3.790   3.417 -0.9508  0.1312  1.6372
 1673SOL    HW2 4839   1.135   3.704   3.330  0.2578  0.3333 -0.1052
 1674SOL     OW 4840   2.787   3.271   3.613 -0.5012  0.2236  0.4094
 1674SOL    HW1 4841   2.824   3.192   3.662  1.1668 -0.2991 -1.5824
 1674SOL    HW2 4842   2.813   3.267   3.517 -0.4676  3.1549  0.2022
 1675SOL     OW 4843   4.407   4.985   0.526 -0.4231 -0.7721  0.0140
 1675SOL    HW1 4844   4.469   4.921   0.571  0.3780 -0.3020 -0.3920
 1675SOL    HW2 4845   4.367   4.943   0.445  1.2031 -0.3139 -1.0669
 1676SOL     OW 4846   1.474   4.472   4.861  0.2456  0.0322  0.1972
 1676SOL    HW1 4847   1.488   4.562   4.821  0.1197  0.1070  0.3223
 1676SOL    HW2 4848   1.562   4.434   4.891  0.3377 -0.0195 -0.1397
 1677SOL     OW 4849   3.950   2.890   3.475  0.0321  0.1820 -0.2834
 1677SOL    HW1 4850   3.895   2.972   3.488 -0.5778 -0.2562 -0.0524
 1677SOL    HW2 4851   4.041   2.915   3.441 -0.0968  0.9582 -0.0616
 1678SOL     OW 4852   4.222   0.030   4.438 -0.4688 -0.2497  0.0967
 1678SOL    HW1 4853   4.243   0.033   4.536  1.9810 -0.3462 -0.3482
 1678SOL    HW2 4854   4.232   0.122   4.399 -3.1899  0.1527  0.1922
 1679SOL     OW 4855   4.561   4.616   4.106  0.7070 -0.1198 -0.2361
 1679SOL    HW1 4856   4.653   4.620   4.068  0.9693 -1.7758  0.1351
 1679SOL    HW2 4857   4.508   4.545   4.059  0.3878 -0.7856  1.0584
 1680SOL     OW 4858   2.993   4.023   4.507 -0.4929  0.4879  0.1774
 1680SOL    HW1 4859   2.933   4.059   4.578  0.8188  2.2737  0.4584
 1680SOL    HW2 4860   3.047   4.097   4.467 -0.4589 -0.6122 -2.0209
 1681SOL     OW 4861   0.147   2.983   2.972 -0.1155 -0.3842 -0.0909
 1681SOL    HW1 4862   0.214   2.955   2.903 -0.6193 -1.6315 -0.0964
 1681SOL    HW2 4863   0.196   3.016   3.053  0.5278 -1.3862 -0.0496
 1682SOL     OW 4864   1.180   3.980   3.163  0.0410  0.8996  0.1242
 1682SOL    HW1 4865   1.172   3.918   3.242  0.2514  1.1112  0.3117
 1682SOL    HW2 4866   1.145   3.934   3.082 -1.1366  1.0381  0.5285
 1683SOL     OW 4867   2.200   0.764   0.227  0.3362  0.9625 -0.0720
 1683SOL    HW1 4868   2.195   0.731   0.321 -2.3416  0.5163 -0.2926
 1683SOL    HW2 4869   2.287   0.812   0.213  1.8888 -1.0563  1.8756
 1684SOL     OW 4870   1.684   0.047   0.045 -0.4921  0.3951  0.4464
 1684SOL    HW1 4871   1.647  -0.013   0.115  0.2630 -0.6756 -0.0445
 1684SOL    HW2 4872   1.621   0.123   0.029 -1.3519 -0.1341  1.2403
 1685SOL     OW 4873   1.039   0.316   3.955  0.0692  0.3053  0.5646
 1685SOL    HW1 4874   0.947   0.279   3.938 -0.0867  0.8375  0.2484
 1685SOL    HW2 4875   1.033   0.392   4.019  0.4656 -0.5989  1.7210
 1686SOL     OW 4876   3.051   4.949   3.010 -0.1903  0.1002  0.5554
 1686SOL    HW1 4877   3.149   4.946   3.030 -0.3383 -1.7382  1.1927
 1686SOL    HW2 4878   2.999   4.933   3.094 -1.0632  1.2712  0.2599
 1687SOL     OW 4879   2.602   3.972   0.694 -0.2528  0.6945  0.2605
 1687SOL    HW1 4880   2.588   3.966   0.793  0.7185  0.8111  0.4186
 1687SOL    HW2 4881   2.695   4.004   0.676  0.3626 -1.4457 -0.7071
 1688SOL     OW 4882   4.972   4.001   4.076  0.0273  0.0616  0.1371
 1688SOL    HW1 4883   5.053   3.974   4.023  0.3674  1.1758  0.0747
 1688SOL    HW2 4884   4.978   4.098   4.099 -0.9868  0.0016  0.6893
 1689SOL     OW 4885   2.066   3.195   0.413 -0.3415  0.0644 -0.1838
 1689SOL    HW1 4886   1.979   3.240   0.435  0.3044  0.3429  2.0236
 1689SOL    HW2 4887   2.129   3.206   0.489  0.5961 -2.7946 -0.4451
 1690SOL     OW 4888   0.235   3.805   4.240  0.0056  0.4967  0.0484
 1690SOL    HW1 4889   0.195   3.727   4.192  0.7357  0.2889 -0.2421
 1690SOL    HW2 4890   0.328   3.820   4.206  0.4025  0.5737  1.1393
 1691SOL     OW 4891   1.004   0.788   3.766 -0.2828  0.4985 -0.2109
 1691SOL    HW1 4892   1.066   0.743   3.703 -0.5592  0.0300 -0.1575
 1691SOL    HW2 4893   0.926   0.826   3.716 -2.0315 -2.3883  0.0561
 1692SOL     OW 4894   0.273   4.861   1.752 -0.2577 -0.1121 -0.4405
 1692SOL    HW1 4895   0.283   4.818   1.842  1.6369  0.2501 -0.4317
 1692SOL    HW2 4896   0.213   4.940   1.759  1.2383  0.9652  0.9224
 1693SOL     OW 4897   0.775   4.435   0.715  0.7086  0.0009  0.2926
 1693SOL    HW1 4898   0.717   4.373   0.768  1.2148 -1.3919 -0.7130
 1693SOL    HW2 4899   0.865   4.440   0.756  0.4566  0.6775  0.7868
 1694SOL     OW 4900   3.461   4.275   4.187 -1.0187 -0.3583  0.4697
 1694SOL    HW1 4901   3.480   4.241   4.095 -1.4186  0.4368  0.0862
 1694SOL    HW2 4902   3.363   4.271   4.205 -0.8175 -1.9095  1.4348
 1695SOL     OW 4903   1.394   4.720   1.449 -0.0184 -0.5221 -0.2373
 1695SOL    HW1 4904   1.481   4.674   1.433  0.1725  0.0430 -0.9022
 1695SOL    HW2 4905   1.335   4.661   1.504  0.7086 -0.9896  0.0731
 1696SOL     OW 4906   2.036   0.242   1.630  0.3085  0.0235  0.3760
 1696SOL    HW1 4907   2.098   0.248   1.708 -1.9509 -0.5200  2.3545
 1696SOL    HW2 4908   2.047   0.322   1.571  1.6270  0.7924  1.6178
 1697SOL     OW 4909   0.884   2.793   0.991  0.1461 -0.1788  0.3483
 1697SOL    HW1 4910   0.810   2.762   0.931 -0.1717 -1.2206  1.2457
 1697SOL    HW2 4911   0.853   2.872   1.044  0.6302  1.1402 -1.2421
 1698SOL     OW 4912   0.871   0.412   0.462  0.0593 -0.1328  0.0434
 1698SOL    HW1 4913   0.875   0.333   0.401  0.4495 -0.8739  0.9984
 1698SOL    HW2 4914   0.963   0.444   0.482 -0.0661  0.1377  0.1992
 1699SOL     OW 4915   4.857   0.212   4.494  0.5875  0.0715 -0.2002
 1699SOL    HW1 4916   4.818   0.288   4.546  3.1514  1.1872  0.2907
 1699SOL    HW2 4917   4.823   0.126   4.530 -0.4559  0.9234  0.9366
 1700SOL     OW 4918   4.671   2.047   4.020 -0.3405 -0.2878 -0.6375
 1700SOL    HW1 4919   4.575   2.064   4.001 -0.6773 -2.0914 -0.6731
 1700SOL    HW2 4920   4.706   2.119   4.081 -2.1044 -0.4305  0.6172
 1701SOL     OW 4921   2.556   0.478   2.140 -0.2575 -0.2631 -0.1735
 1701SOL    HW1 4922   2.600   0.419   2.209  0.3602  0.0106 -0.3281
 1701SOL    HW2 4923   2.598   0.461   2.051  1.3929  1.8546  0.1131
 1702SOL     OW 4924   3.634   4.168   3.283  0.0916 -0.1671 -0.3230
 1702SOL    HW1 4925   3.564   4.180   3.354 -0.4443 -0.7619 -0.7454
 1702SOL    HW2 4926   3.622   4.238   3.212 -0.3268 -0.5133 -0.5965
 1703SOL     OW 4927   3.733   0.203   0.427 -0.1041 -0.1981 -0.2337
 1703SOL    HW1 4928   3.812   0.192   0.367  0.8117  1.1450  0.6829
 1703SOL    HW2 4929   3.763   0.232   0.518 -1.3915 -2.7688  1.1356
 1704SOL     OW 4930   2.719   1.762   2.613  0.0793  0.0727 -0.5819
 1704SOL    HW1 4931   2.628   1.738   2.580  0.4711 -1.3479 -0.6794
 1704SOL    HW2 4932   2.787   1.740   2.544  0.7872 -1.8257  0.6403
 1705SOL     OW 4933   2.514   1.265   3.267 -0.6124 -0.1324 -0.3834
 1705SOL    HW1 4934   2.493   1.219   3.181 -3.0857  3.0274 -1.6883
 1705SOL    HW2 4935   2.494   1.363   3.259  1.5656  0.8038  3.0406
 1706SOL     OW 4936   1.497   4.626   2.157 -0.3274 -0.2073  0.3439
 1706SOL    HW1 4937   1.514   4.595   2.250  2.2734  1.2997  0.4648
 1706SOL    HW2 4938   1.519   4.553   2.093 -2.0081 -1.2077  0.8435
 1707SOL     OW 4939   3.354   1.619   0.435  0.1726  0.3809  0.3414
 1707SOL    HW1 4940   3.313   1.535   0.399 -3.8739  1.3363  2.1233
 1707SOL    HW2 4941   3.341   1.693   0.370  0.3350  0.3979  0.3285
 1708SOL     OW 4942   2.851   1.970   0.628 -0.0419 -0.6517 -0.2879
 1708SOL    HW1 4943   2.948   1.946   0.625  0.2172  0.0682  1.2355
 1708SOL    HW2 4944   2.841   2.061   0.670 -1.3605 -0.5759 -0.7301
 1709SOL     OW 4945   2.985   0.168   2.076 -0.0952 -0.2304  0.1600
 1709SOL    HW1 4946   2.978   0.141   1.980  3.0960 -0.5482 -0.0666
 1709SOL    HW2 4947   3.067   0.223   2.090 -1.0121  0.6590  2.5583
 1710SOL     OW 4948   3.492   0.709   4.190  0.0307 -0.3228  0.0069
 1710SOL    HW1 4949   3.555   0.746   4.259 -1.0444  0.7517  0.4511
 1710SOL    HW2 4950   3.400   0.703   4.230 -0.5570  0.0721 -1.2481
 1711SOL     OW 4951   1.921   0.008   3.988 -0.5163 -0.5566  0.2622
 1711SOL    HW1 4952   2.001  -0.049   3.971  0.9122  1.0131  1.3296
 1711SOL    HW2 4953   1.906   0.069   3.909 -1.1595 -1.3749 -0.2631
 1712SOL     OW 4954   2.939   4.662   1.367  0.1048 -0.0957  0.1252
 1712SOL    HW1 4955   2.906   4.603   1.441  0.2146  0.1133  0.3425
 1712SOL    HW2 4956   2.890   4.749   1.369  0.8023  0.2970  0.5785
 1713SOL     OW 4957   1.370   4.650   1.030 -0.0036  0.0252  0.6939
 1713SOL    HW1 4958   1.282   4.671   1.073  0.7684  0.9495  1.8999
 1713SOL    HW2 4959   1.407   4.732   0.988  0.3931 -0.3081  0.3826
 1714SOL     OW 4960   2.664   1.097   4.628 -0.4449 -0.3148 -0.1348
 1714SOL    HW1 4961   2.620   1.154   4.697 -0.9544 -1.9165  0.9133
 1714SOL    HW2 4962   2.596   1.034   4.589  0.1913 -0.5156 -0.9391
 1715SOL     OW 4963   3.014   1.085   0.451  0.0379  0.6610  0.3801
 1715SOL    HW1 4964   3.079   1.055   0.521  0.7122  2.7688  0.7305
 1715SOL    HW2 4965   3.063   1.108   0.368 -0.5310  0.2394 -0.0836
 1716SOL     OW 4966   3.306   1.533   4.762  0.0905  0.1788  0.0563
 1716SOL    HW1 4967   3.386   1.554   4.819  1.0276  1.1141 -1.5342
 1716SOL    HW2 4968   3.250   1.615   4.751  1.2443  0.7304 -2.3313
 1717SOL     OW 4969   4.333   0.538   4.951 -0.5460 -0.2239  0.2115
 1717SOL    HW1 4970   4.266   0.549   5.024  1.1884 -0.9502  2.0093
 1717SOL    HW2 4971   4.288   0.501   4.870 -2.7859  1.8184  0.4015
 1718SOL     OW 4972   2.619   1.500   0.386 -0.1429 -0.2695 -0.0430
 1718SOL    HW1 4973   2.710   1.541   0.381 -0.2933 -0.0416 -1.5403
 1718SOL    HW2 4974   2.627   1.401   0.372 -0.2616 -0.0075 -2.4026
 1719SOL     OW 4975   2.494   2.543   0.273  0.4322 -0.6656 -0.3152
 1719SOL    HW1 4976   2.426   2.483   0.314 -0.1348  0.2247  0.0910
 1719SOL    HW2 4977   2.515   2.511   0.181 -1.6948 -0.1320 -1.0640
 1720SOL     OW 4978   1.232   1.064   2.434 -0.0401  0.5313  0.6001
 1720SOL    HW1 4979   1.143   1.069   2.478  0.1642  1.2374  0.9452
 1720SOL    HW2 4980   1.303   1.092   2.499  0.6044 -1.4173  0.7991
 1721SOL     OW 4981   3.106   4.759   1.127 -0.8016  0.6739 -0.2380
 1721SOL    HW1 4982   3.069   4.701   1.053  2.9087 -1.0616 -0.9517
 1721SOL    HW2 4983   3.090   4.714   1.215  1.8875 -1.6339 -0.7685
 1722SOL     OW 4984   2.654   0.446   0.230 -0.6693  0.3137  0.2266
 1722SOL    HW1 4985   2.651   0.471   0.133 -3.0295 -1.7294 -0.3415
 1722SOL    HW2 4986   2.603   0.513   0.283 -0.0417  1.0095 -0.0197
 1723SOL     OW 4987   2.323   1.471   1.539  0.6166 -0.5880  0.5231
 1723SOL    HW1 4988   2.251   1.415   1.499  1.5287 -1.2630 -0.1980
 1723SOL    HW2 4989   2.301   1.489   1.635 -0.1138 -1.4649  0.5338
 1724SOL     OW 4990   3.015   1.757   0.380 -0.4928  0.1225 -0.0591
 1724SOL    HW1 4991   3.074   1.793   0.307 -2.3960  0.4023 -1.5486
 1724SOL    HW2 4992   3.063   1.762   0.467  2.3011 -1.1701 -1.3777
 1725SOL     OW 4993   3.480   0.822   3.722  0.2322  0.4059  0.0299
 1725SOL    HW1 4994   3.434   0.762   3.787 -0.4210 -1.0697 -1.7153
 1725SOL    HW2 4995   3.576   0.796   3.715  0.8143  1.8859  1.8429
 1726SOL     OW 4996   1.818   0.423   1.211 -0.1167  0.0542  0.0008
 1726SOL    HW1 4997   1.816   0.452   1.115 -0.6011 -0.9586 -0.2984
 1726SOL    HW2 4998   1.727   0.430   1.251  0.1253  0.7065  0.4812
 1727SOL     OW 4999   3.148   0.826   1.651 -0.6159 -0.0999 -0.5811
 1727SOL    HW1 5000   3.074   0.759   1.659 -0.6880 -0.0430 -0.7702
 1727SOL    HW2 5001   3.117   0.914   1.686 -0.2051 -0.4025  0.5741
 1728SOL     OW 5002   1.982   1.082   1.467  0.3689  0.1770 -0.0238
 1728SOL    HW1 5003   1.997   1.030   1.551  1.6495 -0.3318 -0.5394
 1728SOL    HW2 5004   1.889   1.064   1.433  0.7037 -1.6701 -0.0870
 1729SOL     OW 5005   4.503   0.516   1.967  0.2867  0.0503 -0.0292
 1729SOL    HW1 5006   4.594   0.503   1.926  0.1125 -0.0622 -0.3842
 1729SOL    HW2 5007   4.493   0.454   2.045  0.9274  0.8435  0.6962
 1730SOL     OW 5008   2.119   4.869   3.921 -0.7266  0.2470 -0.1060
 1730SOL    HW1 5009   2.185   4.856   3.847 -0.0672  4.0300 -0.4161
 1730SOL    HW2 5010   2.032   4.825   3.897  1.3401 -4.4702  0.1004
 1731SOL     OW 5011   2.349   2.622   0.642 -0.3858 -0.3919  0.3304
 1731SOL    HW1 5012   2.307   2.712   0.629 -2.0790 -1.2827 -0.7549
 1731SOL    HW2 5013   2.445   2.634   0.666 -0.0813  1.7029 -1.5260
 1732SOL     OW 5014   4.796   2.686   4.478 -0.2608  0.0224 -0.0031
 1732SOL    HW1 5015   4.863   2.657   4.411  0.4175 -0.9904  1.0781
 1732SOL    HW2 5016   4.706   2.691   4.436 -0.0424 -1.6819 -0.7167
 1733SOL     OW 5017   2.726   0.268   2.078  0.4557  0.0498  0.1203
 1733SOL    HW1 5018   2.811   0.222   2.102 -0.3280 -1.1222  0.7399
 1733SOL    HW2 5019   2.740   0.322   1.994  1.9639  0.4341  0.5884
 1734SOL     OW 5020   4.595   4.567   0.721  0.0653  0.3246  0.1563
 1734SOL    HW1 5021   4.693   4.580   0.707  0.6148 -1.0853  2.3680
 1734SOL    HW2 5022   4.576   4.471   0.737 -1.7675  0.5311 -0.5462
 1735SOL     OW 5023   3.456   0.463   1.363  0.0890 -0.1106  0.0017
 1735SOL    HW1 5024   3.386   0.480   1.432  0.8006  1.8618  0.3072
 1735SOL    HW2 5025   3.547   0.478   1.403  0.4959  2.3121 -1.5878
 1736SOL     OW 5026   4.089   0.513   1.830 -0.8167 -0.3726  0.1794
 1736SOL    HW1 5027   4.106   0.610   1.814  0.6604 -0.6428 -0.0078
 1736SOL    HW2 5028   4.014   0.503   1.896  0.6894  0.9654  2.2221
 1737SOL     OW 5029   3.692   4.970   0.868 -0.7641 -0.5402 -0.1346
 1737SOL    HW1 5030   3.767   4.936   0.811  0.8595  0.9189  1.0273
 1737SOL    HW2 5031   3.617   5.000   0.809  0.3912 -0.1402 -1.4555
 1738SOL     OW 5032   2.259   1.075   0.742 -0.4045 -0.2967  0.3585
 1738SOL    HW1 5033   2.341   1.131   0.756 -0.7188  0.1821  0.2963
 1738SOL    HW2 5034   2.184   1.133   0.712 -1.0260 -0.5757  1.3136
 1739SOL     OW 5035   2.526   0.472   4.678  0.1320 -0.7058  0.1877
 1739SOL    HW1 5036   2.479   0.405   4.621 -1.1429 -1.7028  2.2566
 1739SOL    HW2 5037   2.459   0.532   4.721  1.1719  1.0290 -0.5521
 1740SOL     OW 5038   3.411   1.455   0.063  0.0320 -0.5069 -0.0769
 1740SOL    HW1 5039   3.449   1.393   0.133 -0.4292  0.2861  0.8998
 1740SOL    HW2 5040   3.480   1.521   0.036 -0.3002  0.3140  0.9787
 1741SOL     OW 5041   0.700   0.791   2.359  0.2667  0.5721  0.3712
 1741SOL    HW1 5042   0.722   0.775   2.455  0.2540  0.4261  0.3490
 1741SOL    HW2 5043   0.784   0.802   2.307  0.2820  0.1443  0.3094
 1742SOL     OW 5044   4.332   2.136   0.752  0.5278  0.1747 -0.0475
 1742SOL    HW1 5045   4.412   2.197   0.745  1.0860 -0.4880  0.4167
 1742SOL    HW2 5046   4.314   2.094   0.663  0.6322  0.3997 -0.1770
 1743SOL     OW 5047   2.985   1.026   4.965 -0.3147 -0.2619 -0.1046
 1743SOL    HW1 5048   3.074   1.046   4.925 -0.2628 -1.9221 -0.8937
 1743SOL    HW2 5049   2.929   1.109   4.966  0.9497  0.6104 -0.3215
 1744SOL     OW 5050   4.337   4.873   3.105 -0.0120  0.1759  0.0351
 1744SOL    HW1 5051   4.340   4.881   3.204  2.2778 -1.2031  0.1701
 1744SOL    HW2 5052   4.357   4.962   3.063  0.3767  0.4726  0.8347
 1745SOL     OW 5053   4.018   2.180   4.677  0.1784 -0.4857  0.8021
 1745SOL    HW1 5054   4.032   2.114   4.603  0.3893  0.2694  0.1567
 1745SOL    HW2 5055   3.934   2.159   4.726 -2.2439  1.3470 -2.2070
 1746SOL     OW 5056   4.257   0.387   1.679 -0.0137 -0.1981  0.4393
 1746SOL    HW1 5057   4.209   0.450   1.741  2.3021  2.2755 -0.1244
 1746SOL    HW2 5058   4.307   0.319   1.733 -1.1553 -0.5383  1.1118
 1747SOL     OW 5059   3.221   0.484   0.502 -0.0805 -0.2835 -0.0740
 1747SOL    HW1 5060   3.141   0.433   0.533 -0.1270 -0.6297 -0.7439
 1747SOL    HW2 5061   3.271   0.519   0.581 -1.8000  1.3873  0.3512
 1748SOL     OW 5062   2.207   4.997   4.149  0.1904  0.0030 -0.3677
 1748SOL    HW1 5063   2.293   4.950   4.166  0.4535  0.4395 -0.4980
 1748SOL    HW2 5064   2.169   4.966   4.061 -0.4372 -1.1529  0.2853
 1749SOL     OW 5065   3.260   1.008   4.041  0.1749  0.2890  0.2905
 1749SOL    HW1 5066   3.298   1.091   4.083  0.6049 -0.2674  1.0130
 1749SOL    HW2 5067   3.283   1.007   3.944  2.3641 -0.1900  0.7478
 1750SOL     OW 5068   4.617   4.726   0.949  0.6900 -0.0608 -0.1687
 1750SOL    HW1 5069   4.595   4.666   0.872 -2.0544  1.8107 -0.9751
 1750SOL    HW2 5070   4.633   4.671   1.031 -0.3892 -1.9365 -1.1579
 1751SOL     OW 5071   0.348   2.174   4.106 -0.1046  0.2643 -0.4750
 1751SOL    HW1 5072   0.304   2.146   4.021 -0.1147 -1.9819  0.1847
 1751SOL    HW2 5073   0.278   2.204   4.171 -0.6096 -1.9421  0.0844
 1752SOL     OW 5074   3.146   2.184   4.153 -0.1190  0.0042 -0.2892
 1752SOL    HW1 5075   3.195   2.198   4.067 -0.7244 -1.2691 -0.8769
 1752SOL    HW2 5076   3.062   2.132   4.136  0.1593 -1.0110  1.1657
 1753SOL     OW 5077   1.404   0.469   1.537  0.6109  0.0841  0.1341
 1753SOL    HW1 5078   1.390   0.459   1.636  1.9196  0.0674  0.3440
 1753SOL    HW2 5079   1.383   0.563   1.510  0.1257  0.0560  0.4098
 1754SOL     OW 5080   1.258   0.866   0.979  0.2480  0.6031  0.2103
 1754SOL    HW1 5081   1.316   0.939   0.942  1.0296  0.1387  0.5018
 1754SOL    HW2 5082   1.307   0.779   0.974 -0.7219  0.0708 -0.2406
 1755SOL     OW 5083   0.033   1.745   1.337  0.0434 -0.3725  0.1949
 1755SOL    HW1 5084   0.119   1.702   1.364  1.5613  2.7414  0.7448
 1755SOL    HW2 5085   0.008   1.815   1.404 -2.0779 -0.1086 -0.7878
 1756SOL     OW 5086   0.063   2.606   0.692  0.3034  0.2607 -0.1433
 1756SOL    HW1 5087  -0.010   2.537   0.689  1.5026 -1.0253 -1.3778
 1756SOL    HW2 5088   0.115   2.596   0.777  1.6960 -1.7624 -1.1571
 1757SOL     OW 5089   2.991   2.806   4.828 -0.4491 -0.1989  0.6654
 1757SOL    HW1 5090   2.897   2.781   4.851 -0.6399  0.4658  0.6290
 1757SOL    HW2 5091   3.032   2.857   4.904  0.2201 -1.3199  1.0853
 1758SOL     OW 5092   4.254   1.272   0.638 -0.0075 -0.2791 -0.0181
 1758SOL    HW1 5093   4.219   1.360   0.671 -0.6922  0.2141 -1.8836
 1758SOL    HW2 5094   4.257   1.206   0.713 -1.1259  0.8525  1.0662
 1759SOL     OW 5095   0.726   4.977   1.274  0.4861  0.0504 -0.2766
 1759SOL    HW1 5096   0.701   4.924   1.354  3.1211  0.5618  1.0145
 1759SOL    HW2 5097   0.656   4.967   1.203 -2.0278 -0.2871  2.0941
 1760SOL     OW 5098   1.695   1.094   1.089 -0.3238  0.0292  0.1310
 1760SOL    HW1 5099   1.766   1.142   1.140 -0.4292  0.3156  0.0083
 1760SOL    HW2 5100   1.614   1.152   1.082 -0.5474 -0.2712  0.2134
 1761SOL     OW 5101   2.566   1.336   0.087  0.1508 -0.1908  0.6020
 1761SOL    HW1 5102   2.617   1.331   0.172 -2.3032  1.2567  2.2678
 1761SOL    HW2 5103   2.593   1.417   0.036 -0.4207  0.5445  1.4523
 1762SOL     OW 5104   0.943   4.315   1.787 -0.6325  0.4502 -0.3862
 1762SOL    HW1 5105   0.941   4.219   1.758  2.2780  0.3507 -0.5358
 1762SOL    HW2 5106   0.947   4.374   1.707 -3.5858  0.8515 -0.3380
 1763SOL     OW 5107   2.322   2.815   1.520 -0.3931 -0.0422 -0.0061
 1763SOL    HW1 5108   2.329   2.895   1.579  1.1689 -0.2561  0.1438
 1763SOL    HW2 5109   2.413   2.778   1.503 -1.0176 -1.3462 -0.6923
 1764SOL     OW 5110   3.137   0.103   3.515  0.1367  0.2248 -0.3110
 1764SOL    HW1 5111   3.069   0.036   3.545 -0.6400  1.6139  1.1507
 1764SOL    HW2 5112   3.208   0.112   3.584  0.2048  0.9379 -0.4640
 1765SOL     OW 5113   2.553   4.870   1.516 -0.2771 -0.0161 -0.0888
 1765SOL    HW1 5114   2.453   4.864   1.522 -0.2252 -0.8271  0.0551
 1765SOL    HW2 5115   2.587   4.932   1.586 -0.9767  3.5826 -2.6726
 1766SOL     OW 5116   3.579   0.740   0.781 -0.1475 -0.1061 -0.5262
 1766SOL    HW1 5117   3.669   0.700   0.796  0.0643  0.5635  0.0368
 1766SOL    HW2 5118   3.589   0.829   0.737 -0.5085  0.1627 -0.0694
 1767SOL     OW 5119   2.143   0.812   0.549  0.6121 -0.6325 -0.0109
 1767SOL    HW1 5120   2.060   0.825   0.603  0.4582 -0.8029 -0.2082
 1767SOL    HW2 5121   2.173   0.717   0.555  1.2088 -0.4146  0.6579
 1768SOL     OW 5122   4.006   4.686   1.860  0.1637  0.1967  0.0741
 1768SOL    HW1 5123   3.989   4.782   1.883  0.2152  0.2668 -0.1733
 1768SOL    HW2 5124   3.948   4.660   1.782 -0.0883 -0.0663  0.3466
 1769SOL     OW 5125   2.539   4.571   0.549 -0.1253 -0.5794 -0.1346
 1769SOL    HW1 5126   2.441   4.568   0.571 -0.3117  0.3241 -0.7424
 1769SOL    HW2 5127   2.588   4.505   0.605 -0.9580 -0.4050  0.8391
 1770SOL     OW 5128   2.441   2.981   0.602 -0.2236  0.4819 -0.0808
 1770SOL    HW1 5129   2.504   3.056   0.582 -1.7446  1.3833 -1.7619
 1770SOL    HW2 5130   2.455   2.952   0.697  0.8909  2.4187  0.4295
 1771SOL     OW 5131   2.921   1.193   1.328 -0.3056  0.3109  0.0995
 1771SOL    HW1 5132   2.995   1.195   1.396  0.9076 -2.7897 -0.9471
 1771SOL    HW2 5133   2.890   1.286   1.309  0.6391  1.4186  3.4039
 1772SOL     OW 5134   1.043   2.357   4.962 -0.1757  0.3411 -0.2160
 1772SOL    HW1 5135   1.139   2.385   4.973  0.0003 -0.4586  0.3664
 1772SOL    HW2 5136   1.036   2.258   4.970 -0.5486 -0.0542 -3.9204
 1773SOL     OW 5137   2.345   1.129   0.328  0.4383 -0.5240 -0.0684
 1773SOL    HW1 5138   2.334   1.225   0.356  0.5819  0.2853 -2.4714
 1773SOL    HW2 5139   2.258   1.082   0.336 -0.4534  0.7169 -1.7325
 1774SOL     OW 5140   0.476   1.989   0.603 -0.1813  0.5015  0.1477
 1774SOL    HW1 5141   0.489   2.016   0.508 -0.8458  1.2476  0.2536
 1774SOL    HW2 5142   0.397   2.037   0.641 -0.0817  0.0206  1.0046
 1775SOL     OW 5143   1.595   0.779   1.457  0.2214 -0.6226  0.3936
 1775SOL    HW1 5144   1.497   0.761   1.442  0.2013  0.3944 -0.8055
 1775SOL    HW2 5145   1.619   0.868   1.420  2.2008 -2.0224 -2.0630
 1776SOL     OW 5146   3.623   0.798   1.110 -0.1971  0.2956  0.0092
 1776SOL    HW1 5147   3.529   0.812   1.142 -0.9012  1.2390 -2.2405
 1776SOL    HW2 5148   3.630   0.708   1.066 -0.6928  1.0274 -1.6769
 1777SOL     OW 5149   0.779   4.979   2.994 -0.5212 -0.1926 -0.3919
 1777SOL    HW1 5150   0.866   4.932   2.982 -0.1346  0.6978 -1.2389
 1777SOL    HW2 5151   0.780   5.032   3.079  0.1338  0.5659 -0.8594
 1778SOL     OW 5152   3.305   4.401   2.183 -0.5492 -0.0233 -0.3651
 1778SOL    HW1 5153   3.235   4.332   2.200  0.7788 -1.4069 -0.2921
 1778SOL    HW2 5154   3.372   4.365   2.119  0.9325  0.6611  0.7530
 1779SOL     OW 5155   1.762   4.875   0.882  0.2232  0.2927  0.2402
 1779SOL    HW1 5156   1.855   4.902   0.856  1.1151 -1.4319  1.4086
 1779SOL    HW2 5157   1.756   4.868   0.982 -1.3923  1.0885  0.2297
 1780SOL     OW 5158   1.258   0.592   4.937  0.0530 -0.1298 -0.2113
 1780SOL    HW1 5159   1.177   0.533   4.932 -0.5481  0.7412 -1.1703
 1780SOL    HW2 5160   1.316   0.576   4.857 -0.0480  0.4628 -0.4123
 1781SOL     OW 5161   2.302   4.449   2.815  0.2309 -0.2682  0.0766
 1781SOL    HW1 5162   2.302   4.354   2.783 -0.2226  0.4363 -2.1316
 1781SOL    HW2 5163   2.389   4.492   2.792  0.9712 -0.4649  2.2568
 1782SOL     OW 5164   3.476   1.228   1.397 -1.0739 -0.5554  0.7051
 1782SOL    HW1 5165   3.465   1.181   1.484 -0.6459 -1.8902  0.0584
 1782SOL    HW2 5166   3.449   1.167   1.322 -3.4280  1.2052 -0.0350
 1783SOL     OW 5167   4.509   0.711   4.793  0.2743  0.0237 -0.1401
 1783SOL    HW1 5168   4.467   0.739   4.706 -0.8220  2.0588  0.9684
 1783SOL    HW2 5169   4.455   0.637   4.833  0.5217 -0.6147 -0.9443
 1784SOL     OW 5170   4.179   4.168   1.166  0.8140 -0.4308 -0.3235
 1784SOL    HW1 5171   4.201   4.233   1.240 -1.3117  0.4936 -0.4224
 1784SOL    HW2 5172   4.137   4.086   1.205 -2.4828  1.0017 -0.4736
 1785SOL     OW 5173   0.952   1.484   4.231 -0.4243 -0.7044 -0.4987
 1785SOL    HW1 5174   0.965   1.385   4.238 -0.2608 -0.6974 -0.6937
 1785SOL    HW2 5175   0.854   1.503   4.218 -0.5252 -0.8045  0.0976
 1786SOL     OW 5176   3.066   1.940   0.090 -0.5015  0.2009 -0.0162
 1786SOL    HW1 5177   3.079   1.892   0.003  0.7276 -2.1963  1.3579
 1786SOL    HW2 5178   2.979   1.910   0.131 -0.1559 -0.2076  0.4358
 1787SOL     OW 5179   0.845   1.320   1.285 -0.1695 -0.0237 -0.0392
 1787SOL    HW1 5180   0.905   1.253   1.330 -0.3415  0.0638  0.3275
 1787SOL    HW2 5181   0.823   1.394   1.349  0.4602  0.6722 -0.6183
 1788SOL     OW 5182   2.711   0.230   4.495 -0.1361 -0.1091 -0.4887
 1788SOL    HW1 5183   2.623   0.273   4.475 -0.2508  1.3542  2.5335
 1788SOL    HW2 5184   2.774   0.299   4.531  0.7577 -1.8686  1.5484
 1789SOL     OW 5185   4.168   1.453   0.862 -0.4613 -0.7033  0.1203
 1789SOL    HW1 5186   4.133   1.521   0.927 -1.3665 -0.2528 -0.8077
 1789SOL    HW2 5187   4.119   1.367   0.875 -0.2549 -0.7801  0.3978
 1790SOL     OW 5188   2.742   1.094   2.938 -0.0712  0.5672  0.8836
 1790SOL    HW1 5189   2.703   1.005   2.917  0.5416  0.5728 -0.3808
 1790SOL    HW2 5190   2.793   1.090   3.024  3.3324 -1.4361 -1.0096
 1791SOL     OW 5191   3.431   2.147   2.505  0.3642 -0.5327 -0.2857
 1791SOL    HW1 5192   3.351   2.206   2.516  0.3186 -0.4924 -0.8365
 1791SOL    HW2 5193   3.452   2.104   2.593 -0.6685 -1.0728 -0.2840
 1792SOL     OW 5194   2.285   0.522   2.183 -0.4088  0.1055 -0.2334
 1792SOL    HW1 5195   2.268   0.454   2.254  1.2252 -0.5974 -0.4608
 1792SOL    HW2 5196   2.384   0.534   2.172 -0.5960 -0.0039 -2.5487
 1793SOL     OW 5197   3.173   0.343   1.034 -0.5757 -0.2324 -0.2159
 1793SOL    HW1 5198   3.114   0.280   0.984 -0.4294  0.3709 -1.1821
 1793SOL    HW2 5199   3.147   0.437   1.013  0.6267  0.0429 -0.5434
 1794SOL     OW 5200   3.891   0.970   2.427  0.1078 -0.1641  0.4010
 1794SOL    HW1 5201   3.859   1.023   2.348  0.3635 -0.2215  0.2603
 1794SOL    HW2 5202   3.990   0.961   2.423  0.1700  0.2086  0.9637
 1795SOL     OW 5203   3.335   1.164   2.268 -0.1787 -1.1313  0.1846
 1795SOL    HW1 5204   3.307   1.247   2.317  1.2739 -0.6757  0.2922
 1795SOL    HW2 5205   3.262   1.137   2.205 -1.2520 -0.5795  1.1282
 1796SOL     OW 5206   2.324   1.722   0.668 -0.5559  0.3831 -0.5687
 1796SOL    HW1 5207   2.333   1.821   0.657 -1.8184  0.7121  0.9533
 1796SOL    HW2 5208   2.414   1.680   0.668  0.3702  2.0275  2.5438
 1797SOL     OW 5209   2.002   4.289   0.737  0.0060  0.5107  0.6648
 1797SOL    HW1 5210   2.071   4.217   0.746 -0.4734 -0.1732 -0.7993
 1797SOL    HW2 5211   2.036   4.373   0.778  0.7387 -0.4294  2.0620
 1798SOL     OW 5212   3.652   0.454   0.345 -0.3794 -0.2481  0.2113
 1798SOL    HW1 5213   3.723   0.505   0.394  1.0581  0.3552 -2.3463
 1798SOL    HW2 5214   3.668   0.356   0.357 -1.1679 -0.1814  2.3634
 1799SOL     OW 5215   2.796   0.282   1.709  0.2347  0.0150  0.3024
 1799SOL    HW1 5216   2.813   0.192   1.750 -0.6876 -0.1782  0.2905
 1799SOL    HW2 5217   2.747   0.270   1.622  1.1944  0.4753 -0.3151
 1800SOL     OW 5218   2.833   2.005   4.926 -0.6949  0.4315  0.0076
 1800SOL    HW1 5219   2.749   2.014   4.979 -0.4516  0.2131  0.4334
 1800SOL    HW2 5220   2.876   1.917   4.947  0.7079  1.3858  1.3503
 1801SOL     OW 5221   2.184   0.084   1.101  0.3063  0.0369 -0.5582
 1801SOL    HW1 5222   2.173   0.003   1.157  0.9951  0.2955 -0.0318
 1801SOL    HW2 5223   2.104   0.143   1.110 -0.6820 -1.0680 -1.7836
 1802SOL     OW 5224   3.222   3.630   4.809  0.1479  0.0421  0.4877
 1802SOL    HW1 5225   3.183   3.722   4.806 -2.3657 -0.8347  2.5441
 1802SOL    HW2 5226   3.176   3.571   4.742 -0.4310 -0.4143  1.2631
 1803SOL     OW 5227   3.098   4.224   2.229 -0.2370  0.2776 -0.5151
 1803SOL    HW1 5228   3.037   4.273   2.167 -0.8997 -0.3509 -0.3751
 1803SOL    HW2 5229   3.134   4.143   2.184 -0.9124 -0.3135 -0.0089
 1804SOL     OW 5230   3.908   1.438   4.630 -0.0181  0.2096 -0.2501
 1804SOL    HW1 5231   3.815   1.403   4.616  0.0317 -0.0968  0.1577
 1804SOL    HW2 5232   3.906   1.506   4.703 -0.1730  1.3330 -1.2780
 1805SOL     OW 5233   4.812   0.204   0.753 -0.4563 -0.1112 -0.2117
 1805SOL    HW1 5234   4.784   0.151   0.673  0.6749 -0.7239 -0.2259
 1805SOL    HW2 5235   4.874   0.149   0.808  1.7018  1.5725 -0.8275
 1806SOL     OW 5236   2.187   1.265   1.413 -0.0599  0.0356 -0.3465
 1806SOL    HW1 5237   2.091   1.239   1.424 -0.1099  0.6968  1.0167
 1806SOL    HW2 5238   2.214   1.255   1.317 -1.5502  0.0465 -0.7897
 1807SOL     OW 5239   4.790   3.040   1.563  0.2118  0.4233 -0.1925
 1807SOL    HW1 5240   4.703   3.014   1.521 -0.1068  1.9984 -0.5764
 1807SOL    HW2 5241   4.863   3.036   1.495  0.6170 -1.5317  0.2813
 1808SOL     OW 5242   4.927   1.009   1.347  0.1715  0.0157  0.5609
 1808SOL    HW1 5243   4.997   1.065   1.393 -1.0196  1.5691  0.5777
 1808SOL    HW2 5244   4.907   1.049   1.257  0.5041 -1.4089 -0.1756
 1809SOL     OW 5245   4.268   0.538   2.103  0.0460  0.3537 -0.4489
 1809SOL    HW1 5246   4.210   0.468   2.060  1.1437 -0.3059 -0.8875
 1809SOL    HW2 5247   4.332   0.575   2.036  0.1427  1.0798  0.0273
 1810SOL     OW 5248   1.711   0.672   0.493 -0.0756  0.3077 -0.1879
 1810SOL    HW1 5249   1.764   0.639   0.415 -0.3087  2.2216 -1.2216
 1810SOL    HW2 5250   1.623   0.707   0.461 -0.1862  1.0908  0.9133
 1811SOL     OW 5251   4.647   0.766   1.976 -0.1097 -0.3325 -0.0859
 1811SOL    HW1 5252   4.694   0.685   1.939 -0.6414 -0.9388  0.5357
 1811SOL    HW2 5253   4.595   0.810   1.903 -0.3135 -0.9106 -0.2991
 1812SOL     OW 5254   3.195   1.283   5.021 -0.4774 -0.0259  0.4801
 1812SOL    HW1 5255   3.261   1.354   5.044 -0.2873 -0.7050  2.1937
 1812SOL    HW2 5256   3.187   1.276   4.921  0.8636  1.1219  0.2551
 1813SOL     OW 5257   2.305   1.346   0.475  0.2060  0.1055 -0.3549
 1813SOL    HW1 5258   2.236   1.413   0.504 -0.1325 -0.7752  0.9914
 1813SOL    HW2 5259   2.366   1.327   0.552  0.3491 -1.0736 -0.7446
 1814SOL     OW 5260   3.106   1.365   4.394 -0.5902  0.0576  0.4812
 1814SOL    HW1 5261   3.034   1.320   4.447 -1.0266  0.0555 -0.1135
 1814SOL    HW2 5262   3.079   1.459   4.373 -1.1364 -0.4151 -1.0854
 1815SOL     OW 5263   3.762   2.249   0.611 -0.1163  0.1274  0.3699
 1815SOL    HW1 5264   3.825   2.174   0.593 -0.0963  0.0201  0.8752
 1815SOL    HW2 5265   3.763   2.271   0.708  1.3550  2.1053 -0.0334
 1816SOL     OW 5266   3.175   1.805   2.392  0.1199  0.3393 -0.0673
 1816SOL    HW1 5267   3.269   1.834   2.374 -0.3139  1.1699 -1.1524
 1816SOL    HW2 5268   3.128   1.788   2.305 -1.3824  2.0825  0.3489
 1817SOL     OW 5269   1.771   1.682   0.006  0.2218 -0.3820 -0.2652
 1817SOL    HW1 5270   1.851   1.694  -0.052 -1.6674  2.6585 -2.4910
 1817SOL    HW2 5271   1.781   1.738   0.088  0.1312  0.4855 -0.8394
 1818SOL     OW 5272   3.364   4.857   0.790 -0.2443  0.4183  0.1636
 1818SOL    HW1 5273   3.399   4.845   0.883  3.6340 -0.0434 -1.2069
 1818SOL    HW2 5274   3.410   4.934   0.746 -1.4424  0.1752 -1.6334
 1819SOL     OW 5275   1.065   0.075   0.411 -0.2939  0.0014  0.5294
 1819SOL    HW1 5276   1.062   0.097   0.313 -0.8086  0.7977  0.7115
 1819SOL    HW2 5277   0.977   0.101   0.453  0.8092  2.1443  1.6950
 1820SOL     OW 5278   4.743   2.659   4.935 -0.0389  0.4113  0.2802
 1820SOL    HW1 5279   4.803   2.705   4.869  0.6608 -0.0936  0.5581
 1820SOL    HW2 5280   4.654   2.641   4.892  1.0512 -1.7345 -1.2433
 1821SOL     OW 5281   2.409   0.905   1.358  0.7087 -0.2414  0.1767
 1821SOL    HW1 5282   2.509   0.896   1.362  0.6950 -0.6151 -0.1466
 1821SOL    HW2 5283   2.368   0.813   1.353  0.2002 -0.2510  3.0334
 1822SOL     OW 5284   4.820   1.087   1.101  0.0607  0.1832  0.5095
 1822SOL    HW1 5285   4.900   1.056   1.049 -0.4802 -1.9018  0.8055
 1822SOL    HW2 5286   4.738   1.041   1.066 -0.8937  1.6318  0.7645
 1823SOL     OW 5287   2.752   0.800   4.918  0.3842  0.2355 -0.7234
 1823SOL    HW1 5288   2.836   0.844   4.949  0.3604 -0.8016  0.9048
 1823SOL    HW2 5289   2.774   0.727   4.853  0.7930 -0.2326 -0.0759
 1824SOL     OW 5290   2.063   0.933   1.738  0.3096 -0.4216 -0.2190
 1824SOL    HW1 5291   2.140   0.930   1.674 -0.7482  1.2651 -1.6843
 1824SOL    HW2 5292   2.029   0.841   1.754  0.9134 -0.9334 -1.7290
 1825SOL     OW 5293   3.080   0.581   0.900 -0.6755 -0.5312  0.0494
 1825SOL    HW1 5294   3.016   0.552   0.829  2.0865 -1.7795 -2.1364
 1825SOL    HW2 5295   3.100   0.679   0.889 -0.1427 -0.7517 -1.0329
 1826SOL     OW 5296   0.675   1.649   0.126  0.4342  0.1629  0.5196
 1826SOL    HW1 5297   0.711   1.566   0.170  0.1186  0.3568  1.1541
 1826SOL    HW2 5298   0.684   1.640   0.027  1.3206 -0.2101  0.6165
 1827SOL     OW 5299   0.688   3.768   0.778  0.6517 -0.0902 -0.2001
 1827SOL    HW1 5300   0.616   3.699   0.773  0.8906 -0.4574  1.1279
 1827SOL    HW2 5301   0.777   3.724   0.789  0.6234  0.3971  2.7120
 1828SOL     OW 5302   4.194   4.894   1.026 -0.1810  0.1441 -0.1296
 1828SOL    HW1 5303   4.254   4.973   1.038 -1.1099  1.1914 -1.9907
 1828SOL    HW2 5304   4.246   4.810   1.043  1.4363  1.0681 -0.3208
 1829SOL     OW 5305   2.076   1.826   0.762  0.5651  0.2133  0.2664
 1829SOL    HW1 5306   2.015   1.883   0.707 -1.2650  0.6522  2.5447
 1829SOL    HW2 5307   2.167   1.824   0.721  0.2515  3.3557 -0.8638
 1830SOL     OW 5308   4.864   1.673   4.984 -0.1777  0.6893  0.3648
 1830SOL    HW1 5309   4.963   1.688   4.983 -0.1338  0.4947  1.0813
 1830SOL    HW2 5310   4.842   1.599   5.047 -0.8601  1.3547  0.9234
 1831SOL     OW 5311   1.405   4.384   1.726 -0.6383 -0.8272 -0.3918
 1831SOL    HW1 5312   1.391   4.289   1.698 -2.5510 -0.9740  0.8916
 1831SOL    HW2 5313   1.341   4.444   1.678 -1.8629 -0.6974  1.3096
 1832SOL     OW 5314   3.680   0.758   1.635  0.0907 -0.0217  0.5423
 1832SOL    HW1 5315   3.584   0.753   1.659  0.1392  0.1442  0.7679
 1832SOL    HW2 5316   3.735   0.778   1.716  0.0852  2.4174  0.0401
 1833SOL     OW 5317   2.374   1.079   2.503  0.2424  0.2737 -0.3305
 1833SOL    HW1 5318   2.420   1.153   2.553  1.5713  0.3741 -1.6484
 1833SOL    HW2 5319   2.390   0.992   2.550 -0.5111  0.6612  0.6877
 1834SOL     OW 5320   3.111   4.782   1.529 -0.2164  0.3838 -0.1549
 1834SOL    HW1 5321   3.208   4.767   1.508 -0.1450  0.1493  0.3190
 1834SOL    HW2 5322   3.055   4.740   1.458  0.0327  0.8863 -0.6537
 1835SOL     OW 5323   0.379   1.332   2.323  0.0106  0.3939  0.1615
 1835SOL    HW1 5324   0.361   1.298   2.415 -1.1977 -0.4034 -0.3378
 1835SOL    HW2 5325   0.371   1.257   2.258  1.1597  0.8853 -0.5681
 1836SOL     OW 5326   3.871   0.555   1.220 -0.7231 -0.8893  0.5396
 1836SOL    HW1 5327   3.969   0.557   1.237 -0.4485 -0.5394 -0.9091
 1836SOL    HW2 5328   3.821   0.574   1.304  0.3854 -3.0154  1.7335
 1837SOL     OW 5329   4.721   4.766   0.310 -0.4124 -0.2847 -0.0403
 1837SOL    HW1 5330   4.660   4.738   0.236  0.3663 -2.2011 -0.0170
 1837SOL    HW2 5331   4.815   4.771   0.277 -0.4288  2.0106  0.0871
 1838SOL     OW 5332   2.044   1.261   0.274  0.4165  0.6685  0.2809
 1838SOL    HW1 5333   2.062   1.174   0.319 -0.1985  0.3783 -0.0292
 1838SOL    HW2 5334   2.125   1.289   0.222 -0.1582 -0.9104 -1.5592
 1839SOL     OW 5335   3.013   0.803   2.466 -0.2406  0.1500  0.0996
 1839SOL    HW1 5336   3.110   0.808   2.492 -0.2357  0.5233  0.0136
 1839SOL    HW2 5337   2.999   0.726   2.404  0.6648  2.0531 -2.6638
 1840SOL     OW 5338   2.377   0.020   1.631 -0.4540  0.2388 -0.0304
 1840SOL    HW1 5339   2.335   0.083   1.566 -2.2404 -0.8425  0.0093
 1840SOL    HW2 5340   2.315  -0.056   1.649  0.7932 -0.4892  1.4796
 1841SOL     OW 5341   4.352   3.796   1.178  0.0082 -0.6116  0.2623
 1841SOL    HW1 5342   4.354   3.699   1.154 -0.7111 -0.7592  0.7696
 1841SOL    HW2 5343   4.406   3.848   1.111 -2.0437 -0.9825 -1.7964
 1842SOL     OW 5344   1.593   1.555   2.116 -0.0957  0.2271  0.2488
 1842SOL    HW1 5345   1.507   1.600   2.089 -1.4803 -2.9971 -1.1912
 1842SOL    HW2 5346   1.655   1.553   2.037  0.7220  1.1741  0.8435
 1843SOL     OW 5347   3.704   0.174   1.538  0.3229  0.1392  0.4785
 1843SOL    HW1 5348   3.743   0.084   1.520 -0.6154 -0.0583 -0.7030
 1843SOL    HW2 5349   3.618   0.183   1.488  1.2269  2.3345 -0.7791
 1844SOL     OW 5350   4.547   2.281   4.981 -0.1624  0.3990 -0.5476
 1844SOL    HW1 5351   4.535   2.379   4.967 -0.0704  1.0284  3.0115
 1844SOL    HW2 5352   4.640   2.262   5.013 -1.2554 -0.1827  2.6757
 1845SOL     OW 5353   2.214   1.448   1.802 -0.8189  0.0275  0.0063
 1845SOL    HW1 5354   2.127   1.401   1.815 -0.6191  0.0035  1.5060
 1845SOL    HW2 5355   2.240   1.494   1.888 -0.0744  1.2735 -0.8468
 1846SOL     OW 5356   2.492   0.432   0.895  0.5937 -0.4089  0.0046
 1846SOL    HW1 5357   2.436   0.376   0.956  0.1876  0.0624  0.0613
 1846SOL    HW2 5358   2.489   0.528   0.924  2.1555 -0.4932  0.5710
 1847SOL     OW 5359   2.253   1.031   3.995 -0.0148  0.1974  0.1311
 1847SOL    HW1 5360   2.214   1.108   4.046  0.8995 -0.0281  1.1964
 1847SOL    HW2 5361   2.209   0.946   4.026  1.5629 -0.1151  1.6800
 1848SOL     OW 5362   4.285   2.342   4.248  0.5349  0.7212  0.0526
 1848SOL    HW1 5363   4.349   2.310   4.317  2.5221 -0.6740 -2.2957
 1848SOL    HW2 5364   4.191   2.329   4.281  1.3613 -1.5245  1.7685
 1849SOL     OW 5365   1.874   2.396   4.506  0.3040 -0.0935 -0.0875
 1849SOL    HW1 5366   1.841   2.301   4.508  2.1878 -0.8108 -1.2217
 1849SOL    HW2 5367   1.928   2.414   4.588 -0.1040  0.0489  0.1576
 1850SOL     OW 5368   4.484   4.073   4.937  0.1097  0.1258 -0.0227
 1850SOL    HW1 5369   4.527   4.140   4.876  1.7439 -0.9022 -0.0565
 1850SOL    HW2 5370   4.538   3.989   4.938  0.9113  0.4998  3.7673
 1851SOL     OW 5371   4.227   1.926   1.429  0.0561 -0.4287  0.1102
 1851SOL    HW1 5372   4.248   1.989   1.355 -2.1472 -1.1083 -1.1828
 1851SOL    HW2 5373   4.157   1.966   1.488  0.0753 -0.8867  0.4509
 1852SOL     OW 5374   2.109   4.039   2.098 -1.1650  0.5740 -0.0567
 1852SOL    HW1 5375   2.121   4.049   1.999 -0.2557  0.7475  0.0578
 1852SOL    HW2 5376   2.014   4.016   2.118 -1.1294 -0.5041 -1.0437
 1853SOL     OW 5377   3.565   1.693   0.601  0.0742 -0.1717  0.2780
 1853SOL    HW1 5378   3.471   1.667   0.579 -0.4297  0.3352  1.7263
 1853SOL    HW2 5379   3.621   1.610   0.612 -0.0932 -0.4686 -0.9539
 1854SOL     OW 5380   3.682   1.224   2.617  0.6124  0.5758  0.1612
 1854SOL    HW1 5381   3.737   1.216   2.534  1.4071  0.8730  0.6411
 1854SOL    HW2 5382   3.645   1.317   2.623 -1.9078 -0.2299 -1.3261
 1855SOL     OW 5383   1.421   4.990   1.832  0.3858 -0.3904  0.1737
 1855SOL    HW1 5384   1.452   4.923   1.900  0.7643  2.2120  2.7889
 1855SOL    HW2 5385   1.339   5.036   1.866  1.0618  1.5801 -0.7224
 1856SOL     OW 5386   3.268   0.984   3.357 -0.4460  0.6490  0.2420
 1856SOL    HW1 5387   3.283   0.999   3.259 -1.7640 -1.0878 -0.2739
 1856SOL    HW2 5388   3.258   0.887   3.375  2.2098  0.6874  2.5402
 1857SOL     OW 5389   0.573   0.084   0.638  0.6178 -0.0252  0.3050
 1857SOL    HW1 5390   0.662   0.043   0.619  0.8039  1.3104 -2.0256
 1857SOL    HW2 5391   0.565   0.171   0.590 -1.6831  0.2532  1.0688
 1858SOL     OW 5392   2.958   0.948   1.148 -0.3527  0.0005 -0.0776
 1858SOL    HW1 5393   2.860   0.945   1.130 -0.3624  0.1717 -0.0612
 1858SOL    HW2 5394   2.983   1.041   1.175 -0.5049 -0.4331  1.6920
 1859SOL     OW 5395   2.612   1.229   0.358 -0.0862  0.0920 -0.2673
 1859SOL    HW1 5396   2.676   1.163   0.397  0.2029 -0.5280 -1.7333
 1859SOL    HW2 5397   2.522   1.187   0.349 -0.4492  0.6050  0.7432
 1860SOL     OW 5398   3.101   0.323   2.361  0.6973  0.1557 -0.2881
 1860SOL    HW1 5399   3.133   0.293   2.271 -1.9178  2.1771 -2.0323
 1860SOL    HW2 5400   3.089   0.243   2.421  0.8247 -1.4433 -2.2989
 1861SOL     OW 5401   0.440   1.594   2.238 -0.2623  0.2965  0.1061
 1861SOL    HW1 5402   0.449   1.637   2.327  0.1377  1.8703 -0.6562
 1861SOL    HW2 5403   0.417   1.497   2.249 -1.4318  0.7386  1.8857
 1862SOL     OW 5404   3.838   2.688   1.076 -0.5608 -0.3524  0.0649
 1862SOL    HW1 5405   3.746   2.726   1.065  0.2175  1.3531 -1.1713
 1862SOL    HW2 5406   3.844   2.639   1.162 -1.8282  2.0664  1.6409
 1863SOL     OW 5407   1.289   1.662   2.664 -0.0872  0.3034  0.5363
 1863SOL    HW1 5408   1.237   1.615   2.592  0.1569 -1.5704  1.5018
 1863SOL    HW2 5409   1.327   1.747   2.628 -2.1111  0.7362 -0.7768
 1864SOL     OW 5410   0.666   1.466   1.087  0.2123  0.5390  0.6909
 1864SOL    HW1 5411   0.596   1.413   1.135  0.2496 -0.8596 -0.7035
 1864SOL    HW2 5412   0.756   1.427   1.105  0.2933  0.3990  0.0201
 1865SOL     OW 5413   2.532   0.181   0.798  0.6799  0.2476  0.0701
 1865SOL    HW1 5414   2.490   0.109   0.853  1.6591 -0.0881  0.4049
 1865SOL    HW2 5415   2.516   0.270   0.842 -0.3827  0.2186 -0.2536
 1866SOL     OW 5416   2.655   0.902   1.178  0.0072  0.3198 -0.3788
 1866SOL    HW1 5417   2.674   0.871   1.272 -0.4307 -0.1303 -0.4381
 1866SOL    HW2 5418   2.628   0.998   1.181 -0.2854  0.2298 -0.0120
 1867SOL     OW 5419   1.961   0.815   2.558  0.4894  0.1509 -0.0871
 1867SOL    HW1 5420   2.040   0.758   2.581 -1.1846 -1.7148  1.4091
 1867SOL    HW2 5421   1.897   0.761   2.502 -0.0392  1.4053 -0.7174
 1868SOL     OW 5422   3.066   4.420   1.781 -0.0037  0.4230  0.1005
 1868SOL    HW1 5423   3.146   4.374   1.745 -0.2317 -0.4046  0.6082
 1868SOL    HW2 5424   3.091   4.470   1.864 -0.0021  0.1945  0.2388
 1869SOL     OW 5425   2.624   1.110   4.249  0.6236  0.0691 -0.4380
 1869SOL    HW1 5426   2.592   1.019   4.275 -0.8868  0.7047  0.0108
 1869SOL    HW2 5427   2.711   1.102   4.199  1.2372 -1.5076  0.8051
 1870SOL     OW 5428   3.835   4.823   0.685 -0.4661 -0.1586 -0.0067
 1870SOL    HW1 5429   3.817   4.727   0.669  0.6276 -0.3746  0.0164
 1870SOL    HW2 5430   3.860   4.868   0.600 -1.4274  0.2184 -0.1026
 1871SOL     OW 5431   4.485   0.609   0.134 -0.1579  0.2132  0.2225
 1871SOL    HW1 5432   4.439   0.586   0.049 -2.1683 -0.2331  1.3702
 1871SOL    HW2 5433   4.452   0.696   0.169  0.2454  0.1356  0.8301
 1872SOL     OW 5434   4.412   0.198   0.401  0.0706 -0.0929  0.4738
 1872SOL    HW1 5435   4.496   0.246   0.376 -0.2955 -0.4548 -1.6495
 1872SOL    HW2 5436   4.422   0.159   0.493  3.0170 -1.8057 -0.4172
 1873SOL     OW 5437   4.709   4.310   3.414 -0.6987 -0.0436  0.3349
 1873SOL    HW1 5438   4.686   4.303   3.511 -0.5480 -2.2723  0.2712
 1873SOL    HW2 5439   4.674   4.229   3.366  0.6635  0.1949 -1.1562
 1874SOL     OW 5440   2.556   2.617   1.917 -0.0038 -0.0965 -0.4598
 1874SOL    HW1 5441   2.602   2.576   1.995 -1.9689 -2.0582 -0.2444
 1874SOL    HW2 5442   2.576   2.564   1.835  0.3958  0.7264 -0.9009
 1875SOL     OW 5443   2.358   0.291   1.074  0.7903  0.3497  0.2174
 1875SOL    HW1 5444   2.306   0.205   1.069 -0.5225  1.1257  0.2283
 1875SOL    HW2 5445   2.305   0.359   1.124  2.0449  1.0293  0.6697
 1876SOL     OW 5446   2.095   2.080   0.950 -0.1402  0.2521  0.1522
 1876SOL    HW1 5447   2.139   2.135   0.879 -1.5619  0.3102 -0.7164
 1876SOL    HW2 5448   2.086   1.986   0.918 -0.1057  0.1071  0.5680
 1877SOL     OW 5449   0.082   4.519   1.851  0.6897 -0.5315 -0.2438
 1877SOL    HW1 5450   0.146   4.540   1.777  0.7660 -0.4250 -0.1480
 1877SOL    HW2 5451   0.078   4.420   1.866  0.0699 -0.6248 -0.9347
 1878SOL     OW 5452   4.440   2.837   0.997 -0.0084  0.1724 -0.0130
 1878SOL    HW1 5453   4.418   2.740   1.009  1.6922 -0.5069 -1.8277
 1878SOL    HW2 5454   4.539   2.850   1.005 -0.2159  1.8094  0.3115
 1879SOL     OW 5455   2.823   1.282   0.816  0.3835 -0.1320  0.2115
 1879SOL    HW1 5456   2.774   1.198   0.839 -0.2244  0.5776  1.6604
 1879SOL    HW2 5457   2.894   1.299   0.884  3.5750 -1.7102 -2.4023
 1880SOL     OW 5458   4.164   0.800   5.016  0.6316  0.3148  0.0129
 1880SOL    HW1 5459   4.178   0.718   5.071 -2.1975 -0.3678 -0.1442
 1880SOL    HW2 5460   4.111   0.867   5.068 -0.3324  0.4853 -1.1439
 1881SOL     OW 5461   3.272   4.651   0.321 -0.1908 -0.2020 -0.0439
 1881SOL    HW1 5462   3.330   4.603   0.255 -0.1814 -0.4686  0.1555
 1881SOL    HW2 5463   3.183   4.668   0.280 -0.1764 -0.3435 -0.1376
 1882SOL     OW 5464   0.168   0.606   1.093 -0.2791  0.6573 -0.3569
 1882SOL    HW1 5465   0.263   0.633   1.082  0.2422 -0.2760  1.4132
 1882SOL    HW2 5466   0.124   0.666   1.161 -0.6676  0.4418 -0.4151
 1883SOL     OW 5467   4.345   3.619   2.221  0.3347 -0.1295  0.2114
 1883SOL    HW1 5468   4.259   3.572   2.238  0.0133  0.2944 -0.2126
 1883SOL    HW2 5469   4.420   3.553   2.223 -0.0815 -0.6270 -0.1639
 1884SOL     OW 5470   0.905   1.251   2.338 -0.2082 -0.3259  0.2278
 1884SOL    HW1 5471   0.920   1.218   2.431  0.3040 -1.0333 -0.0955
 1884SOL    HW2 5472   0.949   1.188   2.273  0.2995  0.6934 -0.4371
 1885SOL     OW 5473   2.190   1.862   1.144  0.2119  0.0556 -0.7917
 1885SOL    HW1 5474   2.091   1.860   1.152  0.3356  1.4728  2.2759
 1885SOL    HW2 5475   2.229   1.788   1.199  0.9208  0.0575 -1.2740
 1886SOL     OW 5476   3.392   1.355   1.050  0.9807  0.0060 -0.4978
 1886SOL    HW1 5477   3.391   1.380   0.953  0.0004  1.2866 -0.1759
 1886SOL    HW2 5478   3.307   1.307   1.073  0.4075  1.2778  0.1062
 1887SOL     OW 5479   3.716   1.935   1.206  0.3085  0.0906 -0.4918
 1887SOL    HW1 5480   3.806   1.914   1.166  0.7043 -1.6856  1.2023
 1887SOL    HW2 5481   3.644   1.899   1.146  0.5668  2.3569 -2.3624
 1888SOL     OW 5482   3.121   2.464   1.388 -0.5857 -0.1645 -0.5972
 1888SOL    HW1 5483   3.143   2.554   1.427 -0.8476 -0.4514  0.2372
 1888SOL    HW2 5484   3.164   2.393   1.443  0.3270 -0.5328 -1.7565
 1889SOL     OW 5485   1.372   2.678   1.132  0.0667  0.5652 -0.8365
 1889SOL    HW1 5486   1.426   2.762   1.129 -0.7474  1.1433  0.1933
 1889SOL    HW2 5487   1.276   2.700   1.120 -0.5503  0.2121  2.5178
 1890SOL     OW 5488   1.749   1.347   1.513  0.2820 -0.2554 -0.1202
 1890SOL    HW1 5489   1.686   1.291   1.459 -0.6310  2.5746 -2.2541
 1890SOL    HW2 5490   1.825   1.376   1.456  0.3333  1.2398  0.6532
 1891SOL     OW 5491   1.894   0.854   4.454  0.3659 -0.2047 -0.4156
 1891SOL    HW1 5492   1.813   0.894   4.411  0.9511 -0.2075 -1.5851
 1891SOL    HW2 5493   1.951   0.927   4.491  0.4473 -0.1003 -0.7393
 1892SOL     OW 5494   4.087   4.883   0.775  0.3401 -0.6974 -0.2000
 1892SOL    HW1 5495   3.990   4.861   0.765 -0.2561  0.9863  1.3698
 1892SOL    HW2 5496   4.110   4.893   0.871  1.3758  1.6987 -0.6116
 1893SOL     OW 5497   3.356   1.082   1.624 -0.2096  0.0231 -0.2341
 1893SOL    HW1 5498   3.314   1.169   1.648  0.9407  0.8663 -1.1649
 1893SOL    HW2 5499   3.367   1.026   1.706 -1.5715  0.4543  0.2752
 1894SOL     OW 5500   2.292   2.368   1.461  0.0595  0.5365 -0.5296
 1894SOL    HW1 5501   2.193   2.381   1.460  0.0825  1.5431  2.2717
 1894SOL    HW2 5502   2.317   2.304   1.534  1.4463 -0.5757 -1.8953
 1895SOL     OW 5503   4.216   4.364   0.724  0.7919  0.2326 -1.0558
 1895SOL    HW1 5504   4.249   4.453   0.755  1.5538 -0.3036 -0.2704
 1895SOL    HW2 5505   4.226   4.297   0.798  0.6363 -0.6071 -1.7740
 1896SOL     OW 5506   0.863   0.508   2.414 -0.4326 -0.4509 -0.0183
 1896SOL    HW1 5507   0.783   0.469   2.460 -0.1112  0.1692  1.0986
 1896SOL    HW2 5508   0.841   0.525   2.318 -2.2256  1.3021  0.6323
 1897SOL     OW 5509   0.952   1.977   1.053  0.3381 -0.8709 -0.2112
 1897SOL    HW1 5510   1.040   2.021   1.036  1.1848 -2.0030  1.0865
 1897SOL    HW2 5511   0.880   2.046   1.055  1.3132  0.1771 -0.3693
 1898SOL     OW 5512   3.372   4.733   1.497  0.1560  0.3735 -0.3191
 1898SOL    HW1 5513   3.443   4.801   1.515  0.9110 -0.1471 -1.2366
 1898SOL    HW2 5514   3.412   4.641   1.501 -0.0340  0.1401 -2.6394
 1899SOL     OW 5515   1.808   1.501   0.864 -0.3263 -1.1532 -0.1655
 1899SOL    HW1 5516   1.751   1.485   0.945  1.3080 -0.1466  1.2324
 1899SOL    HW2 5517   1.770   1.576   0.811  0.2728  0.2898  1.3759
 1900SOL     OW 5518   1.627   0.833   0.032  0.0725 -0.1175  0.0744
 1900SOL    HW1 5519   1.609   0.789  -0.056  0.6916  3.2335 -1.8971
 1900SOL    HW2 5520   1.541   0.850   0.080 -0.5472  0.6227 -1.2731
 1901SOL     OW 5521   1.035   0.924   1.193  0.4089  0.0375  0.1161
 1901SOL    HW1 5522   1.063   0.866   1.117  1.4093  0.9651 -0.2361
 1901SOL    HW2 5523   1.105   0.923   1.264  1.2999  2.1532 -0.6484
 1902SOL     OW 5524   4.474   4.541   1.232  0.2152 -0.1648 -0.1064
 1902SOL    HW1 5525   4.479   4.527   1.331  0.2056 -0.4820 -0.1479
 1902SOL    HW2 5526   4.535   4.476   1.186  0.1118 -0.1168 -0.3149
 1903SOL     OW 5527   0.027   1.243   1.417  0.0318  0.0322  0.6244
 1903SOL    HW1 5528   0.103   1.215   1.477 -0.0558 -0.6336  0.4288
 1903SOL    HW2 5529   0.063   1.274   1.329  0.1076  0.1886  0.7106
 1904SOL     OW 5530   4.169   0.565   0.123 -0.1771 -0.0883 -0.4154
 1904SOL    HW1 5531   4.224   0.558   0.206 -0.7035  1.6871  0.1374
 1904SOL    HW2 5532   4.086   0.511   0.133  0.6387 -1.4351 -0.5919
 1905SOL     OW 5533   2.755   4.544   0.367 -0.2188 -0.2595  0.7419
 1905SOL    HW1 5534   2.833   4.542   0.429 -0.8340  0.2832  1.5516
 1905SOL    HW2 5535   2.675   4.579   0.415 -0.5194  0.9503 -0.5795
 1906SOL     OW 5536   2.399   1.815   0.968 -0.5114 -0.4529  0.4213
 1906SOL    HW1 5537   2.397   1.889   0.901  2.3020 -0.1541  0.5757
 1906SOL    HW2 5538   2.319   1.822   1.028 -0.8300  1.8358 -0.1930
 1907SOL     OW 5539   3.231   1.306   1.732  0.0105 -0.2081 -0.2479
 1907SOL    HW1 5540   3.175   1.315   1.815  0.8620  0.5064  0.2678
 1907SOL    HW2 5541   3.271   1.394   1.709  0.9619 -0.7046 -0.5712
 1908SOL     OW 5542   2.432   4.669   1.743 -0.0709 -0.1931 -0.4212
 1908SOL    HW1 5543   2.475   4.751   1.780 -2.1954  0.1508  1.5283
 1908SOL    HW2 5544   2.500   4.597   1.734  1.2485  0.8129  0.9545
 1909SOL     OW 5545   3.769   1.589   1.216 -0.2872 -0.0289  0.2301
 1909SOL    HW1 5546   3.692   1.643   1.183 -1.0064 -0.9169  0.4185
 1909SOL    HW2 5547   3.812   1.636   1.293  0.5924  1.4150 -1.0853
 1910SOL     OW 5548   3.178   1.804   1.946 -0.5456 -0.0585 -0.5838
 1910SOL    HW1 5549   3.116   1.871   1.906 -1.9248 -0.8476  0.1789
 1910SOL    HW2 5550   3.269   1.814   1.904 -1.0830  1.3215 -1.4886
 1911SOL     OW 5551   2.902   0.950   1.528 -0.1700 -0.0986 -0.4220
 1911SOL    HW1 5552   2.963   0.976   1.603 -1.2270 -0.3474  0.5558
 1911SOL    HW2 5553   2.888   1.029   1.468  0.8379  0.0496 -0.4796
 1912SOL     OW 5554   3.548   0.309   1.167 -0.2783  0.2545  0.3621
 1912SOL    HW1 5555   3.518   0.327   1.073 -0.4495 -0.5307  0.2557
 1912SOL    HW2 5556   3.513   0.379   1.228  0.7744  1.4289 -0.3243
 1913SOL     OW 5557   4.829   0.357   2.511  0.1646 -0.1037 -0.2568
 1913SOL    HW1 5558   4.915   0.379   2.556  0.2960 -0.8872 -0.1129
 1913SOL    HW2 5559   4.795   0.438   2.463  0.0882  0.6998  1.1207
 1914SOL     OW 5560   0.805   1.520   2.042 -0.1356  0.2822  0.4525
 1914SOL    HW1 5561   0.804   1.422   2.019  0.2876  0.4968 -0.5376
 1914SOL    HW2 5562   0.742   1.569   1.983 -2.8889  0.2177  3.1106
 1915SOL     OW 5563   2.761   0.484   3.713 -0.3661 -0.6173  0.5741
 1915SOL    HW1 5564   2.748   0.553   3.783 -0.2343 -1.2649  1.2520
 1915SOL    HW2 5565   2.857   0.455   3.712 -0.2976 -0.3963 -0.0876
 1916SOL     OW 5566   2.799   1.064   1.871  0.4632  0.7064  0.3219
 1916SOL    HW1 5567   2.706   1.030   1.858  0.8208  0.1459 -0.8844
 1916SOL    HW2 5568   2.828   1.044   1.965 -1.0676  2.0368  1.1288
 1917SOL     OW 5569   3.873   1.757   3.654  0.2234 -0.2227  0.2178
 1917SOL    HW1 5570   3.800   1.810   3.611  0.7852  1.5696  1.3809
 1917SOL    HW2 5571   3.958   1.768   3.601  0.2394 -0.3181  0.2231
 1918SOL     OW 5572   1.383   1.772   1.167  0.3806  0.1348 -0.6458
 1918SOL    HW1 5573   1.393   1.866   1.197  2.5015 -0.6296  1.3202
 1918SOL    HW2 5574   1.292   1.738   1.192 -0.0873  1.3685 -0.6187
 1919SOL     OW 5575   3.008   0.495   4.105 -0.2668 -0.3165  0.4656
 1919SOL    HW1 5576   2.968   0.437   4.175  0.9167  0.2139  1.6278
 1919SOL    HW2 5577   2.994   0.591   4.129 -1.3604 -0.0771 -0.9393
 1920SOL     OW 5578   1.935   4.218   4.524  0.3954  0.0397  0.2829
 1920SOL    HW1 5579   1.895   4.132   4.491 -2.0850  0.7846  1.1389
 1920SOL    HW2 5580   2.031   4.222   4.496 -0.0351 -1.9118 -1.8426
 1921SOL     OW 5581   3.649   1.905   2.145 -0.2420 -0.2033  0.0796
 1921SOL    HW1 5582   3.600   1.987   2.116  1.4327  0.5684 -0.6937
 1921SOL    HW2 5583   3.653   1.840   2.070  0.3991 -0.0148 -0.0549
 1922SOL     OW 5584   0.539   1.610   1.467 -0.8589 -0.3235 -0.2097
 1922SOL    HW1 5585   0.616   1.545   1.469 -2.4705 -2.3367  1.2910
 1922SOL    HW2 5586   0.548   1.674   1.543 -2.2920 -2.7399  2.1626
 1923SOL     OW 5587   3.149   3.831   3.984 -0.4170 -0.0195 -0.3116
 1923SOL    HW1 5588   3.140   3.917   4.033  0.7925  0.3120 -0.6423
 1923SOL    HW2 5589   3.156   3.755   4.049  0.5204  0.3518  0.0391
 1924SOL     OW 5590   2.875   1.065   2.418  0.2994 -0.2349 -0.2838
 1924SOL    HW1 5591   2.925   0.988   2.457  0.3717 -0.2779 -0.4595
 1924SOL    HW2 5592   2.900   1.149   2.466 -0.9599 -0.5458  0.9666
 1925SOL     OW 5593   2.700   1.163   2.626 -0.1610  0.0765  0.2554
 1925SOL    HW1 5594   2.667   1.073   2.598 -1.4961  0.1325  1.5135
 1925SOL    HW2 5595   2.779   1.152   2.686 -1.5198 -0.4317  2.0553
 1926SOL     OW 5596   3.080   2.480   2.702 -0.1087  0.0593 -0.5506
 1926SOL    HW1 5597   3.024   2.401   2.729 -1.0892  0.5417 -1.1179
 1926SOL    HW2 5598   3.075   2.493   2.603  0.7783  0.2962 -0.5722
 1927SOL     OW 5599   2.300   0.898   1.957 -0.7345  0.1701  0.1550
 1927SOL    HW1 5600   2.290   0.802   1.981 -2.0927 -0.2007 -1.6911
 1927SOL    HW2 5601   2.209   0.938   1.944 -0.1747  1.6209  0.5207
 1928SOL     OW 5602   2.483   4.641   4.510  0.1119  0.0266 -0.2352
 1928SOL    HW1 5603   2.561   4.702   4.526  1.5403 -1.5434 -0.8945
 1928SOL    HW2 5604   2.482   4.569   4.580  0.8361 -1.4402 -1.6621
 1929SOL     OW 5605   3.639   1.155   1.690  0.4883 -0.2242 -0.1236
 1929SOL    HW1 5606   3.656   1.109   1.777 -1.4732  1.3231  1.1592
 1929SOL    HW2 5607   3.544   1.140   1.663  0.6077  0.7544 -1.1301
 1930SOL     OW 5608   4.214   2.761   2.873 -0.3083  0.1222 -0.1993
 1930SOL    HW1 5609   4.135   2.819   2.853 -1.4069 -1.7490 -1.6425
 1930SOL    HW2 5610   4.184   2.678   2.920  0.5852 -1.1110 -1.6782
 1931SOL     OW 5611   3.340   1.642   3.560 -0.0601 -0.5390 -0.0396
 1931SOL    HW1 5612   3.245   1.637   3.591  0.6160  0.2809  2.3883
 1931SOL    HW2 5613   3.371   1.551   3.533 -1.8081 -0.6525 -1.9497
 1932SOL     OW 5614   3.365   1.842   1.371 -0.3616  0.9858  0.8434
 1932SOL    HW1 5615   3.460   1.817   1.349 -1.2867 -2.1236 -0.0700
 1932SOL    HW2 5616   3.329   1.781   1.441 -2.1506  1.1774  0.1415
 1933SOL     OW 5617   4.337   4.170   0.509 -0.0865  0.1173  0.1844
 1933SOL    HW1 5618   4.271   4.098   0.530 -1.1001  0.3158 -2.0406
 1933SOL    HW2 5619   4.347   4.230   0.588 -1.1070 -1.0135  1.2140
 1934SOL     OW 5620   2.516   4.672   3.423 -0.1757 -0.2196  0.6480
 1934SOL    HW1 5621   2.424   4.635   3.411 -0.2865 -0.2255  1.4245
 1934SOL    HW2 5622   2.536   4.680   3.521 -0.2064  1.8918  0.5199
 1935SOL     OW 5623   0.441   4.670   3.507  0.6039 -0.2040  0.2732
 1935SOL    HW1 5624   0.432   4.571   3.512  1.6278 -0.2716  0.9835
 1935SOL    HW2 5625   0.538   4.695   3.498  0.4813  0.7641  1.3722
 1936SOL     OW 5626   0.861   4.994   4.068  0.3184  0.3755  0.2696
 1936SOL    HW1 5627   0.953   4.976   4.035  0.2149  1.3847 -0.6250
 1936SOL    HW2 5628   0.864   5.020   4.164  0.9502  0.2939  0.2728
 1937SOL     OW 5629   3.949   0.578   4.126 -0.0031 -0.2598  0.2976
 1937SOL    HW1 5630   3.984   0.489   4.098 -0.8611 -0.3310 -0.6034
 1937SOL    HW2 5631   4.006   0.650   4.086 -1.3413 -0.3538 -1.9342
 1938SOL     OW 5632   3.016   4.352   3.499 -0.7029  0.1181 -0.3259
 1938SOL    HW1 5633   2.965   4.391   3.576  0.4014 -0.0430  0.5022
 1938SOL    HW2 5634   3.026   4.254   3.512  4.3565  0.6542  2.4232
 1939SOL     OW 5635   0.390   1.390   1.613 -0.3306  0.1114 -0.2042
 1939SOL    HW1 5636   0.302   1.394   1.661  0.2231 -1.6110  1.0376
 1939SOL    HW2 5637   0.463   1.414   1.676  0.2820 -0.7123 -0.5907
 1940SOL     OW 5638   2.895   0.887   2.732  0.6479  0.1631  0.5383
 1940SOL    HW1 5639   2.921   0.984   2.729  0.4983  0.1828 -0.4845
 1940SOL    HW2 5640   2.937   0.840   2.655 -0.6692 -0.2416  0.0519
 1941SOL     OW 5641   0.465   4.229   1.174  0.5782  0.0778  0.0048
 1941SOL    HW1 5642   0.561   4.255   1.169 -0.2981  3.7804 -0.4779
 1941SOL    HW2 5643   0.429   4.215   1.082  0.4205 -0.3956  0.1344
 1942SOL     OW 5644   4.860   1.068   2.965 -0.0216  0.1985 -0.3444
 1942SOL    HW1 5645   4.955   1.072   2.995 -0.2017 -2.0405  0.7103
 1942SOL    HW2 5646   4.856   1.035   2.871  0.2253 -2.2461  0.4291
 1943SOL     OW 5647   3.418   2.455   1.463 -0.1005  0.1367  0.4515
 1943SOL    HW1 5648   3.513   2.425   1.452  0.7427  2.3957  1.0353
 1943SOL    HW2 5649   3.365   2.382   1.506  1.4553 -1.0263  0.4815
 1944SOL     OW 5650   3.094   4.712   2.443 -0.2387 -0.1952  0.0182
 1944SOL    HW1 5651   2.999   4.683   2.453  0.0916 -0.9074  1.3734
 1944SOL    HW2 5652   3.137   4.719   2.534  0.7626  0.9565 -0.5135
 1945SOL     OW 5653   4.581   4.844   2.944  0.5056 -0.2250 -0.2495
 1945SOL    HW1 5654   4.674   4.828   2.976  0.1692 -2.3874 -0.2190
 1945SOL    HW2 5655   4.552   4.935   2.973  2.4114  0.3018  0.1727
 1946SOL     OW 5656   3.097   1.896   2.668 -1.1257 -0.3442 -0.2271
 1946SOL    HW1 5657   3.015   1.888   2.725  0.3711 -1.2646  1.9185
 1946SOL    HW2 5658   3.108   1.814   2.612 -2.5983  0.5610 -1.9471
 1947SOL     OW 5659   3.497   4.992   4.769  0.0119  0.5939  0.1283
 1947SOL    HW1 5660   3.496   4.895   4.791 -1.9856  0.1073 -1.8278
 1947SOL    HW2 5661   3.434   5.041   4.831 -1.1888  0.1511 -0.7132
 1948SOL     OW 5662   3.820   0.294   1.109 -0.2572  0.1353  0.2498
 1948SOL    HW1 5663   3.868   0.375   1.143 -0.1878  0.0017  0.4704
 1948SOL    HW2 5664   3.730   0.288   1.151 -1.1588  1.2928 -1.3779
 1949SOL     OW 5665   4.494   1.281   2.138 -0.2928  0.4989  0.0179
 1949SOL    HW1 5666   4.439   1.347   2.088 -0.4974 -0.5234 -1.1409
 1949SOL    HW2 5667   4.555   1.233   2.075 -0.5546 -0.8195  0.7278
 1950SOL     OW 5668   3.537   1.262   0.591  0.0950  0.3737 -0.1919
 1950SOL    HW1 5669   3.621   1.318   0.592 -1.7809  3.5173 -2.1887
 1950SOL    HW2 5670   3.538   1.203   0.511  0.1750  0.8499 -0.5496
 1951SOL     OW 5671   3.662   3.663   2.372  0.1691  0.3151  0.5173
 1951SOL    HW1 5672   3.566   3.670   2.344 -0.6380 -0.7943  2.7112
 1951SOL    HW2 5673   3.684   3.737   2.435  0.5396  0.2014  0.5260
 1952SOL     OW 5674   1.390   1.905   2.549 -0.6383 -0.4654  0.4984
 1952SOL    HW1 5675   1.466   1.947   2.599 -0.0245 -0.2306 -0.6096
 1952SOL    HW2 5676   1.307   1.961   2.561 -0.2414  0.1469  0.4090
 1953SOL     OW 5677   1.163   1.492   4.739  0.5172 -0.4772 -0.1487
 1953SOL    HW1 5678   1.110   1.500   4.654 -0.2366  0.7168  0.4156
 1953SOL    HW2 5679   1.170   1.396   4.764  1.9235 -1.0042 -2.2783
 1954SOL     OW 5680   3.106   0.797   0.028 -0.0182  0.5550  0.0634
 1954SOL    HW1 5681   3.038   0.861  -0.008 -1.2427 -0.8370 -0.2073
 1954SOL    HW2 5682   3.151   0.838   0.107 -1.5187  1.3534  0.5514
 1955SOL     OW 5683   2.612   1.776   4.089 -0.3438  0.4457 -0.3202
 1955SOL    HW1 5684   2.646   1.752   4.180 -1.1441 -0.6478 -0.2909
 1955SOL    HW2 5685   2.517   1.746   4.080 -0.5932  1.4298 -1.1847
 1956SOL     OW 5686   0.124   1.063   1.061 -0.1187  0.5718 -0.0736
 1956SOL    HW1 5687   0.185   1.010   1.120  1.0485  0.6398 -1.1730
 1956SOL    HW2 5688   0.120   1.158   1.094 -0.3815  0.3534  0.5435
 1957SOL     OW 5689   4.020   3.321   3.151 -0.1421 -1.0186  0.2630
 1957SOL    HW1 5690   4.073   3.315   3.067  1.2582 -2.6827  1.1872
 1957SOL    HW2 5691   3.959   3.242   3.158 -2.2934  0.4946 -0.4315
 1958SOL     OW 5692   4.346   0.205   1.489  0.4540 -0.3797  0.0652
 1958SOL    HW1 5693   4.389   0.239   1.405  2.1544 -0.6208  0.7972
 1958SOL    HW2 5694   4.281   0.273   1.523 -0.3543 -0.3280 -1.4836
 1959SOL     OW 5695   1.921   2.118   1.891  0.1777  0.1465  0.6799
 1959SOL    HW1 5696   1.881   2.034   1.854 -1.4647  0.9463  0.5308
 1959SOL    HW2 5697   2.020   2.113   1.885  0.0771 -1.3109 -0.3882
 1960SOL     OW 5698   3.485   0.059   3.377  0.3517 -0.0293 -0.0101
 1960SOL    HW1 5699   3.545  -0.020   3.368  1.0859  0.5510 -0.3774
 1960SOL    HW2 5700   3.418   0.043   3.449  0.7336 -0.8274  0.1732
 1961SOL     OW 5701   2.700   3.485   4.592  0.0224  0.9586  0.6657
 1961SOL    HW1 5702   2.774   3.517   4.534  0.7073  1.9314  2.0144
 1961SOL    HW2 5703   2.649   3.413   4.545  1.4034  0.7375 -0.5520
 1962SOL     OW 5704   2.847   0.022   1.809 -0.3675 -0.4232 -0.5905
 1962SOL    HW1 5705   2.801  -0.063   1.833 -0.5509 -0.0019  0.6023
 1962SOL    HW2 5706   2.908   0.007   1.730  0.4218 -1.9079  0.2734
 1963SOL     OW 5707   4.119   1.345   2.946 -0.1124  0.1579 -0.1155
 1963SOL    HW1 5708   4.145   1.254   2.977 -1.0101 -0.4836 -1.1725
 1963SOL    HW2 5709   4.021   1.349   2.928  0.1624  0.7836 -1.7653
 1964SOL     OW 5710   1.481   0.634   4.528  0.7817 -0.3417  0.1402
 1964SOL    HW1 5711   1.464   0.732   4.529  0.4557 -0.3765 -0.8866
 1964SOL    HW2 5712   1.516   0.605   4.617  1.0837  0.7383  0.3853
 1965SOL     OW 5713   3.202   1.482   1.418 -0.2183  0.3069 -0.2821
 1965SOL    HW1 5714   3.122   1.542   1.414  0.8176  1.7671 -0.0448
 1965SOL    HW2 5715   3.285   1.538   1.429  0.7658 -1.2054  0.2857
 1966SOL     OW 5716   3.522   4.954   1.575  0.3567  0.1609 -0.0271
 1966SOL    HW1 5717   3.506   5.008   1.493 -1.3913 -1.1949 -0.6334
 1966SOL    HW2 5718   3.492   5.006   1.655  2.2851  1.5821 -0.1651
 1967SOL     OW 5719   4.696   1.935   0.803 -0.0703  0.0538 -0.4165
 1967SOL    HW1 5720   4.662   1.947   0.897 -0.8675 -2.2755 -0.3405
 1967SOL    HW2 5721   4.794   1.917   0.805  0.0519  0.7060 -0.1174
 1968SOL     OW 5722   3.686   1.079   3.667 -0.7087 -0.1246  0.6730
 1968SOL    HW1 5723   3.631   1.044   3.591 -2.3539 -1.2058  2.2664
 1968SOL    HW2 5724   3.715   1.173   3.647 -0.7689 -0.5133 -1.4130
 1969SOL     OW 5725   4.538   1.531   1.509 -0.1948 -0.5381 -0.1640
 1969SOL    HW1 5726   4.475   1.454   1.517  0.3212 -0.7933  3.3364
 1969SOL    HW2 5727   4.632   1.498   1.519 -0.0401  0.5278  3.2524
 1970SOL     OW 5728   4.848   1.640   1.679 -0.0918  0.4950 -0.3205
 1970SOL    HW1 5729   4.941   1.677   1.684 -0.6475  2.0740 -0.9014
 1970SOL    HW2 5730   4.792   1.679   1.752 -0.2536 -0.6345  0.1764
 1971SOL     OW 5731   0.650   2.570   3.891  0.0469  0.2134 -0.7534
 1971SOL    HW1 5732   0.630   2.536   3.799  0.2347  0.4444 -0.8804
 1971SOL    HW2 5733   0.661   2.670   3.888  1.2422  0.0917 -0.6872
 1972SOL     OW 5734   3.391   4.556   3.789 -0.2484 -0.2493  0.2382
 1972SOL    HW1 5735   3.388   4.633   3.853 -2.0671  0.7854 -0.9890
 1972SOL    HW2 5736   3.393   4.591   3.695  2.3849 -1.7313 -0.3554
 1973SOL     OW 5737   2.595   0.154   4.180 -0.2443 -0.2802 -0.4150
 1973SOL    HW1 5738   2.558   0.097   4.107  0.8857  0.5851 -1.7039
 1973SOL    HW2 5739   2.628   0.096   4.254 -0.6213 -1.2141 -0.9633
 1974SOL     OW 5740   3.918   2.014   2.216  1.2069  0.2067  0.2238
 1974SOL    HW1 5741   3.955   2.072   2.143 -0.3730 -1.0445 -1.6864
 1974SOL    HW2 5742   3.824   1.989   2.194  0.5372  0.0389  2.9144
 1975SOL     OW 5743   2.719   3.284   3.955 -0.9786 -0.1208  0.1551
 1975SOL    HW1 5744   2.668   3.269   3.870  0.3052  1.2530 -0.9076
 1975SOL    HW2 5745   2.794   3.218   3.960 -0.6397  0.2374 -0.1348
 1976SOL     OW 5746   2.886   2.167   3.750 -0.2328  0.0265  0.1954
 1976SOL    HW1 5747   2.857   2.202   3.839 -2.1343 -0.7600 -0.0647
 1976SOL    HW2 5748   2.841   2.080   3.732 -0.2444  0.3874 -1.7350
 1977SOL     OW 5749   2.864   3.897   0.484 -0.3240  0.1984 -0.3531
 1977SOL    HW1 5750   2.826   3.939   0.402 -1.2075  0.3449  0.1155
 1977SOL    HW2 5751   2.839   3.952   0.564  0.9497  0.3342 -0.0359
 1978SOL     OW 5752   4.185   1.988   4.009 -0.1067  0.4440 -0.5579
 1978SOL    HW1 5753   4.100   2.040   4.003 -1.2517 -1.2756  0.0186
 1978SOL    HW2 5754   4.205   1.968   4.104  0.7759  0.5617 -0.7152
 1979SOL     OW 5755   2.706   0.342   3.379 -0.1144  0.3508  0.4437
 1979SOL    HW1 5756   2.699   0.442   3.386 -0.4227  0.2998  0.9854
 1979SOL    HW2 5757   2.661   0.301   3.458  0.3739 -0.2084  0.4355
 1980SOL     OW 5758   3.588   1.966   2.724  0.1268  0.4774  0.7059
 1980SOL    HW1 5759   3.505   1.930   2.765  0.5218 -2.1401 -0.6141
 1980SOL    HW2 5760   3.644   1.891   2.689  2.4470  2.2296  0.3572
 1981SOL     OW 5761   0.508   0.903   2.917  0.5671  0.2123 -0.3777
 1981SOL    HW1 5762   0.577   0.871   2.982 -0.2577 -1.2820 -0.1949
 1981SOL    HW2 5763   0.534   0.874   2.825  0.1987 -0.3553 -0.3082
 1982SOL     OW 5764   2.520   0.677   0.317 -0.4059 -0.1486  0.7062
 1982SOL    HW1 5765   2.447   0.646   0.378 -1.3384 -0.8417 -0.7115
 1982SOL    HW2 5766   2.495   0.765   0.277  0.7675  0.9247  2.2230
 1983SOL     OW 5767   4.351   0.671   2.803  0.0603  0.2306 -0.1178
 1983SOL    HW1 5768   4.375   0.610   2.727  1.0485  0.2128  0.1885
 1983SOL    HW2 5769   4.435   0.706   2.844 -0.4468 -0.0696  1.2188
 1984SOL     OW 5770   2.413   0.724   2.527 -0.0263  0.4344 -0.2602
 1984SOL    HW1 5771   2.433   0.633   2.564 -1.4415  0.4389  0.6220
 1984SOL    HW2 5772   2.355   0.715   2.446 -0.5900  0.5585  0.1259
 1985SOL     OW 5773   4.010   2.005   2.453 -0.1733  0.2831 -0.0667
 1985SOL    HW1 5774   4.101   2.047   2.461 -0.5291  1.0174  0.2127
 1985SOL    HW2 5775   3.979   2.010   2.358  0.1799 -0.1839 -0.2069
 1986SOL     OW 5776   1.746   0.609   3.182 -0.2648 -0.2019  0.0531
 1986SOL    HW1 5777   1.737   0.513   3.154 -0.0615 -0.6781  1.5299
 1986SOL    HW2 5778   1.813   0.655   3.124  1.5121 -1.6394  0.8808
 1987SOL     OW 5779   2.007   2.451   3.308 -0.0670 -0.1477  0.1644
 1987SOL    HW1 5780   2.015   2.547   3.282 -0.9623  0.4135  1.8727
 1987SOL    HW2 5781   1.932   2.439   3.372 -0.6497 -2.1743 -0.7900
 1988SOL     OW 5782   3.330   0.758   0.959 -0.5132 -0.0151  0.1551
 1988SOL    HW1 5783   3.424   0.758   0.923 -0.6102 -0.2882 -0.1002
 1988SOL    HW2 5784   3.330   0.720   1.051 -0.1310  1.4895  0.8161
 1989SOL     OW 5785   1.944   0.281   3.336  0.1143  0.5380  0.2929
 1989SOL    HW1 5786   1.978   0.187   3.341  2.1096  1.1765 -0.2642
 1989SOL    HW2 5787   1.895   0.303   3.421  1.1841 -0.4489  1.2094
 1990SOL     OW 5788   1.939   4.895   3.122  0.5063 -0.2070  0.1287
 1990SOL    HW1 5789   1.979   4.805   3.139  0.9088  0.4926  3.4905
 1990SOL    HW2 5790   1.841   4.892   3.141  0.4957  0.0361  0.1167
 1991SOL     OW 5791   4.128   2.693   1.915  0.4008 -0.3990 -0.7699
 1991SOL    HW1 5792   4.153   2.789   1.906  1.3320 -0.7120 -1.6750
 1991SOL    HW2 5793   4.151   2.644   1.831  1.2676 -1.7001  0.1814
 1992SOL     OW 5794   3.244   0.756   2.582 -0.4500 -0.3301 -0.2490
 1992SOL    HW1 5795   3.245   0.740   2.680 -2.1299  0.2272 -0.1028
 1992SOL    HW2 5796   3.322   0.814   2.556  0.6553 -1.4192  0.5472
 1993SOL     OW 5797   4.189   0.103   2.982 -0.5514  0.1018 -0.1448
 1993SOL    HW1 5798   4.233   0.064   2.901  0.5590 -0.5673  0.7568
 1993SOL    HW2 5799   4.093   0.123   2.961 -0.1333  0.5526 -1.8098
 1994SOL     OW 5800   4.412   1.096   1.736 -0.0211  0.3472 -0.0370
 1994SOL    HW1 5801   4.351   1.017   1.734  0.2532  0.0476  1.5767
 1994SOL    HW2 5802   4.484   1.085   1.668 -0.3210 -0.5287 -0.2242
 1995SOL     OW 5803   3.487   1.601   1.175  0.2542 -0.0702 -0.4698
 1995SOL    HW1 5804   3.486   1.510   1.132  1.3102  0.3704 -1.4671
 1995SOL    HW2 5805   3.412   1.655   1.138 -0.2674 -0.4702 -0.0093
 1996SOL     OW 5806   3.916   1.697   1.855 -0.0996  0.1109  0.5087
 1996SOL    HW1 5807   3.997   1.714   1.911  0.9205 -0.5221 -0.7189
 1996SOL    HW2 5808   3.934   1.621   1.792 -0.8240  1.3694 -1.3197
 1997SOL     OW 5809   0.269   1.475   3.295  0.4567  0.6149 -0.1037
 1997SOL    HW1 5810   0.306   1.562   3.262 -0.7677  1.1575 -0.1133
 1997SOL    HW2 5811   0.172   1.487   3.318 -0.5979 -1.4642 -2.9422
 1998SOL     OW 5812   0.375   1.641   3.091 -0.5988  0.2577  0.4576
 1998SOL    HW1 5813   0.423   1.697   3.159 -1.2325  0.8860  0.4085
 1998SOL    HW2 5814   0.440   1.607   3.023 -0.2530  1.3310  0.2273
 1999SOL     OW 5815   4.665   0.876   1.375  0.2229 -0.0036 -0.0298
 1999SOL    HW1 5816   4.630   0.871   1.282 -0.7388  0.1797  0.3070
 1999SOL    HW2 5817   4.749   0.931   1.377  1.2857 -1.5072 -1.0576
 2000SOL     OW 5818   4.562   2.297   2.998 -0.1961 -0.6696  0.8329
 2000SOL    HW1 5819   4.506   2.215   2.983 -0.8269  0.2382 -2.9320
 2000SOL    HW2 5820   4.517   2.375   2.955  2.0038  0.9817  1.3856
 2001SOL     OW 5821   1.556   0.761   3.013 -0.7935 -0.3130 -0.3262
 2001SOL    HW1 5822   1.465   0.720   3.020 -0.0804 -2.6218 -2.9629
 2001SOL    HW2 5823   1.603   0.750   3.101 -1.7758 -2.4423  0.0127
 2002SOL     OW 5824   1.967   3.162   3.995 -0.2868  0.0512  0.0467
 2002SOL    HW1 5825   1.963   3.073   4.039 -1.5151  0.6053  1.1200
 2002SOL    HW2 5826   2.046   3.213   4.029  0.1039 -0.4062 -0.1619
 2003SOL     OW 5827   3.572   1.474   2.764 -0.0073  0.0588  0.2539
 2003SOL    HW1 5828   3.660   1.495   2.805 -0.8644  1.7077  1.3542
 2003SOL    HW2 5829   3.558   1.531   2.682  0.5672 -1.3244 -0.8582
 2004SOL     OW 5830   0.222   0.287   1.865  0.7744  0.3657 -0.0357
 2004SOL    HW1 5831   0.242   0.376   1.825 -0.4252  1.9282  2.5503
 2004SOL    HW2 5832   0.207   0.298   1.963 -0.4389 -2.5609  0.1961
 2005SOL     OW 5833   3.356   0.681   1.220 -0.3934  0.1113  0.6322
 2005SOL    HW1 5834   3.360   0.588   1.258 -0.9784 -0.2423 -0.1428
 2005SOL    HW2 5835   3.316   0.743   1.288  0.0579 -0.1825  1.1800
 2006SOL     OW 5836   1.416   1.027   0.778  0.0246 -0.3913  0.1186
 2006SOL    HW1 5837   1.375   1.117   0.791 -0.5992 -0.7733  0.8785
 2006SOL    HW2 5838   1.368   0.978   0.705  1.1559  0.3413 -1.1670
 2007SOL     OW 5839   3.325   1.869   2.798 -0.0538  0.0587 -0.0717
 2007SOL    HW1 5840   3.237   1.880   2.752  0.8927 -0.6124 -2.1578
 2007SOL    HW2 5841   3.320   1.794   2.864 -1.5002  1.1723  1.1489
 2008SOL     OW 5842   2.057   1.266   4.776  0.3065  0.0396  0.4495
 2008SOL    HW1 5843   2.070   1.195   4.707 -2.2280 -1.2888  1.1842
 2008SOL    HW2 5844   2.063   1.225   4.867 -0.5686  0.8555  0.8940
 2009SOL     OW 5845   2.523   3.438   0.304  0.0806  0.1288  0.6130
 2009SOL    HW1 5846   2.592   3.488   0.357  0.2919 -0.0946  0.5496
 2009SOL    HW2 5847   2.529   3.340   0.325 -0.2377  0.1119  0.6307
 2010SOL     OW 5848   1.782   1.297   2.886 -0.0191  0.2359 -0.3084
 2010SOL    HW1 5849   1.869   1.258   2.917 -0.9052  0.0865  2.2561
 2010SOL    HW2 5850   1.752   1.250   2.803  1.3202 -1.1673 -0.0546
 2011SOL     OW 5851   2.903   1.108   3.179 -0.0245  0.4363 -0.5231
 2011SOL    HW1 5852   2.860   1.166   3.249 -0.1558  0.6586 -0.7888
 2011SOL    HW2 5853   2.910   1.014   3.214  0.3160  0.6374 -0.0392
 2012SOL     OW 5854   3.414   1.508   1.697  0.2967  0.2804  0.3341
 2012SOL    HW1 5855   3.467   1.495   1.613 -2.0042 -1.1577 -0.9709
 2012SOL    HW2 5856   3.376   1.600   1.699 -0.1020  0.1329 -0.4803
 2013SOL     OW 5857   3.334   2.396   2.675 -0.2579 -0.1057 -0.1860
 2013SOL    HW1 5858   3.344   2.392   2.575 -0.0790 -1.7350 -0.1306
 2013SOL    HW2 5859   3.239   2.414   2.699 -1.0371 -3.0643 -0.6866
 2014SOL     OW 5860   4.080   2.961   2.347  0.1328 -0.2456  0.2924
 2014SOL    HW1 5861   4.002   2.899   2.343  0.0824 -0.1440 -0.3926
 2014SOL    HW2 5862   4.087   2.999   2.439 -0.5572 -0.3487  0.3959
 2015SOL     OW 5863   4.425   4.875   1.272  0.0841  0.1429 -0.7512
 2015SOL    HW1 5864   4.489   4.864   1.349 -0.4702  1.0269 -0.1568
 2015SOL    HW2 5865   4.424   4.790   1.218 -0.6737 -1.0959  1.0992
 2016SOL     OW 5866   1.514   2.130   1.090  0.3486  0.0946  0.0188
 2016SOL    HW1 5867   1.530   2.081   1.005 -1.6647 -1.9323  0.7029
 2016SOL    HW2 5868   1.597   2.126   1.147  0.4208 -2.1701 -0.1593
 2017SOL     OW 5869   0.274   1.255   3.939 -0.1165 -0.2276 -0.1366
 2017SOL    HW1 5870   0.302   1.290   3.849  1.0792 -2.0190 -0.5207
 2017SOL    HW2 5871   0.337   1.289   4.009  0.0581 -0.2766 -0.2670
 2018SOL     OW 5872   3.842   1.390   2.289  0.1615 -0.0081 -0.0726
 2018SOL    HW1 5873   3.845   1.430   2.381  2.1723  0.3679 -0.2748
 2018SOL    HW2 5874   3.806   1.458   2.225  0.7829  0.4876  0.0880
 2019SOL     OW 5875   2.380   3.944   3.275  0.5064 -0.2407  0.0887
 2019SOL    HW1 5876   2.311   4.004   3.236  1.9242  0.6101 -1.2633
 2019SOL    HW2 5877   2.413   3.981   3.362 -0.1003 -0.1803  0.2930
 2020SOL     OW 5878   2.792   4.869   2.709 -0.4316  0.0468 -0.0775
 2020SOL    HW1 5879   2.743   4.848   2.624 -0.9630 -0.5972  0.3761
 2020SOL    HW2 5880   2.825   4.784   2.751  0.9251  0.4521 -0.2699
 2021SOL     OW 5881   0.467   0.857   3.850  0.5229 -0.2684  0.9191
 2021SOL    HW1 5882   0.488   0.762   3.825  1.5314  0.2632 -0.4244
 2021SOL    HW2 5883   0.546   0.898   3.895  0.3263  0.1047  0.9313
 2022SOL     OW 5884   4.016   1.219   0.198  0.0701 -0.3171 -0.3395
 2022SOL    HW1 5885   4.021   1.292   0.267 -0.4606 -0.3949 -0.2113
 2022SOL    HW2 5886   4.073   1.243   0.120 -0.0442  0.2089 -0.2671
 2023SOL     OW 5887   4.343   4.950   1.983 -0.6762  0.7734 -0.0851
 2023SOL    HW1 5888   4.347   4.868   2.040  0.7366  1.1600  0.3871
 2023SOL    HW2 5889   4.377   4.929   1.892 -0.3547  0.8248  0.0233
 2024SOL     OW 5890   2.049   1.073   1.985 -0.0288 -0.1875 -0.1915
 2024SOL    HW1 5891   2.032   1.045   1.890 -1.1771  0.2626 -0.1441
 2024SOL    HW2 5892   2.044   1.172   1.991  1.3522 -0.1279  0.1167
 2025SOL     OW 5893   1.962   4.940   2.717  0.3019  0.0052 -0.1530
 2025SOL    HW1 5894   1.894   4.999   2.675  0.7025  0.6553  0.1070
 2025SOL    HW2 5895   1.998   4.983   2.800  1.3630 -0.1164 -0.5344
 2026SOL     OW 5896   0.664   2.216   2.142 -0.2930  0.3607  0.0469
 2026SOL    HW1 5897   0.620   2.127   2.128  0.0445  0.2653 -0.4489
 2026SOL    HW2 5898   0.654   2.272   2.059  3.1676 -0.8194 -1.3550
 2027SOL     OW 5899   0.970   4.725   3.178 -0.2848  0.6224 -0.1991
 2027SOL    HW1 5900   0.976   4.732   3.079  1.2920 -1.3367 -0.3053
 2027SOL    HW2 5901   1.021   4.800   3.220  0.9258  0.2327 -0.9212
 2028SOL     OW 5902   1.405   4.253   3.765 -0.3601 -0.0436  0.3248
 2028SOL    HW1 5903   1.421   4.341   3.719  0.8436  0.0911  0.9640
 2028SOL    HW2 5904   1.364   4.189   3.700  3.0379 -0.4825 -1.6073
 2029SOL     OW 5905   2.621   0.247   3.656  0.1075  0.1052  0.2638
 2029SOL    HW1 5906   2.575   0.224   3.742 -0.8505 -0.0036 -0.2626
 2029SOL    HW2 5907   2.672   0.333   3.668  4.3675 -2.3886  2.4795
 2030SOL     OW 5908   2.729   1.393   2.962 -0.4189 -0.3272  0.5708
 2030SOL    HW1 5909   2.758   1.450   2.885 -0.4128 -0.8537  0.1823
 2030SOL    HW2 5910   2.750   1.297   2.943  0.3502 -0.3806  1.5811
 2031SOL     OW 5911   1.897   2.167   0.768 -0.1846 -0.6696  0.0682
 2031SOL    HW1 5912   1.888   2.079   0.720 -1.9879  0.2276 -1.3781
 2031SOL    HW2 5913   1.920   2.150   0.864 -0.3790 -2.7209 -0.1912
 2032SOL     OW 5914   2.681   1.685   3.310  0.1067 -0.1225 -0.4589
 2032SOL    HW1 5915   2.649   1.650   3.398 -0.5394 -2.1356 -1.4248
 2032SOL    HW2 5916   2.757   1.629   3.278  0.8362  1.0636 -0.8449
 2033SOL     OW 5917   2.504   4.870   2.307  1.0205  0.9377  0.2284
 2033SOL    HW1 5918   2.519   4.794   2.244 -2.0735 -0.3331  0.8490
 2033SOL    HW2 5919   2.451   4.942   2.262  0.4257  0.8618  0.7792
 2034SOL     OW 5920   4.471   1.493   1.814  0.3373  0.1510  0.4174
 2034SOL    HW1 5921   4.545   1.457   1.757  1.1785  0.6247  1.1806
 2034SOL    HW2 5922   4.468   1.592   1.805 -0.1516  0.1423  0.4686
 2035SOL     OW 5923   4.355   1.094   0.354 -0.0822 -0.2649 -0.1380
 2035SOL    HW1 5924   4.332   1.159   0.282 -1.5808  0.8476  1.2594
 2035SOL    HW2 5925   4.419   1.136   0.418  2.2286 -1.6758 -1.3926
 2036SOL     OW 5926   1.885   3.841   3.536  0.4822 -0.1992  0.8278
 2036SOL    HW1 5927   1.844   3.926   3.570 -0.1198 -0.3674  0.5306
 2036SOL    HW2 5928   1.855   3.764   3.594  1.7432 -0.1012  1.6539
 2037SOL     OW 5929   1.925   4.383   3.930 -1.4414  0.0115 -0.3704
 2037SOL    HW1 5930   2.001   4.337   3.975 -2.7588 -0.7507  1.1770
 2037SOL    HW2 5931   1.958   4.428   3.847  0.5434 -0.8449 -0.1068
 2038SOL     OW 5932   2.580   0.595   3.268 -0.1015 -0.1175  0.8760
 2038SOL    HW1 5933   2.501   0.550   3.310 -0.6306  0.8949  0.9976
 2038SOL    HW2 5934   2.579   0.578   3.170 -0.3808 -0.2468  0.8992
 2039SOL     OW 5935   1.772   1.350   0.615 -0.2249 -0.4989  0.5388
 2039SOL    HW1 5936   1.745   1.438   0.575  0.1904  0.6263  2.5817
 2039SOL    HW2 5937   1.791   1.362   0.712  0.5204 -2.7447  0.7340
 2040SOL     OW 5938   2.966   3.886   2.925 -0.5556  0.2152 -0.4620
 2040SOL    HW1 5939   3.011   3.901   3.014 -1.2689  0.1311 -0.0850
 2040SOL    HW2 5940   3.019   3.932   2.854 -1.1429  2.1784  0.3028
 2041SOL     OW 5941   1.677   0.192   1.424  0.0177 -0.1392  0.0187
 2041SOL    HW1 5942   1.706   0.195   1.520 -0.9063 -0.7028  0.3324
 2041SOL    HW2 5943   1.629   0.277   1.401 -0.8499 -0.4995  0.4365
 2042SOL     OW 5944   2.136   1.661   2.246 -0.2904  0.0466  0.5226
 2042SOL    HW1 5945   2.138   1.642   2.344  2.3418  1.9434  0.9422
 2042SOL    HW2 5946   2.046   1.695   2.221 -0.7753  0.3177  2.4475
 2043SOL     OW 5947   3.457   2.121   2.056 -0.0882  0.2475  0.4477
 2043SOL    HW1 5948   3.489   2.193   1.994 -1.0618 -0.2699 -0.7210
 2043SOL    HW2 5949   3.361   2.139   2.080  0.2515  0.3812  1.7506
 2044SOL     OW 5950   2.397   0.237   3.512  0.0101  0.0971 -0.1619
 2044SOL    HW1 5951   2.484   0.230   3.561  1.0806 -0.6143 -2.0840
 2044SOL    HW2 5952   2.378   0.333   3.490  0.1742  0.2788  0.4739
 2045SOL     OW 5953   1.424   2.498   3.180 -1.3388 -0.3480  0.2345
 2045SOL    HW1 5954   1.451   2.408   3.145  0.4524  0.3083 -0.1439
 2045SOL    HW2 5955   1.384   2.552   3.106 -0.4681 -0.0973 -0.0669
 2046SOL     OW 5956   1.929   0.235   2.497 -0.0615 -0.0115 -0.4456
 2046SOL    HW1 5957   1.974   0.221   2.408 -0.1675  1.3225 -0.7288
 2046SOL    HW2 5958   1.862   0.162   2.512 -0.0740 -0.2286 -1.4798
 2047SOL     OW 5959   2.934   4.154   0.044 -0.4273  0.0625  0.4900
 2047SOL    HW1 5960   3.029   4.152   0.075 -0.4534 -0.5454  0.5567
 2047SOL    HW2 5961   2.908   4.063   0.011 -0.9935  0.2155  0.4999
 2048SOL     OW 5962   1.661   4.430   1.631  0.0150 -0.2613 -0.3364
 2048SOL    HW1 5963   1.738   4.375   1.664  0.7661 -0.0172 -1.6473
 2048SOL    HW2 5964   1.581   4.411   1.688  0.0027 -3.3795 -1.1947
 2049SOL     OW 5965   4.271   1.424   4.301  0.0871 -0.1619 -0.0846
 2049SOL    HW1 5966   4.255   1.424   4.203  0.1314  1.4187 -0.1143
 2049SOL    HW2 5967   4.189   1.454   4.349  0.0875 -0.8538  0.3645
 2050SOL     OW 5968   1.894   1.078   3.265  0.1143  0.3519  0.6648
 2050SOL    HW1 5969   1.969   1.022   3.298 -0.1801 -0.3456  0.1668
 2050SOL    HW2 5970   1.880   1.062   3.168 -0.1445  1.0930  0.5726
 2051SOL     OW 5971   2.194   3.655   0.306  0.1781  0.2026 -0.2475
 2051SOL    HW1 5972   2.205   3.568   0.354  1.3235 -0.3886 -1.5305
 2051SOL    HW2 5973   2.098   3.667   0.281 -0.1191 -0.3199  0.6019
 2052SOL     OW 5974   1.376   2.376   4.560  0.4260 -0.4241  0.0033
 2052SOL    HW1 5975   1.472   2.400   4.550 -0.0283  1.4759 -0.2679
 2052SOL    HW2 5976   1.320   2.437   4.503 -1.1001  0.0215  1.8850
 2053SOL     OW 5977   2.821   5.004   2.202  0.2409 -0.5176  0.0514
 2053SOL    HW1 5978   2.888   5.050   2.145 -0.0567 -1.3278 -0.9795
 2053SOL    HW2 5979   2.813   5.052   2.290  1.2531  0.2979 -0.2867
 2054SOL     OW 5980   2.742   1.993   3.246  0.2684  0.3797 -0.6327
 2054SOL    HW1 5981   2.832   2.019   3.212  0.8748 -0.5647  0.1951
 2054SOL    HW2 5982   2.744   1.898   3.278 -0.9495  0.4233 -0.3528
 2055SOL     OW 5983   4.131   4.859   2.228  0.2113  0.1638  0.5293
 2055SOL    HW1 5984   4.190   4.782   2.253 -0.6197 -0.1113  1.7646
 2055SOL    HW2 5985   4.103   4.907   2.311  0.0868  1.3352 -0.1732
 2056SOL     OW 5986   3.652   2.323   1.472 -0.0716 -0.2192 -0.2306
 2056SOL    HW1 5987   3.619   2.255   1.539 -0.0094 -0.1693 -0.1487
 2056SOL    HW2 5988   3.668   2.278   1.384 -2.1820  0.0953 -0.8350
 2057SOL     OW 5989   3.700   0.204   0.881 -0.3179  0.0399 -0.7690
 2057SOL    HW1 5990   3.757   0.239   0.955  0.0640 -0.9890 -0.5614
 2057SOL    HW2 5991   3.671   0.111   0.902 -2.3111  0.6071 -0.7335
 2058SOL     OW 5992   1.983   2.166   4.916 -0.3408  0.1641 -0.0922
 2058SOL    HW1 5993   1.967   2.165   5.015  1.1204 -1.9629  0.1937
 2058SOL    HW2 5994   2.082   2.171   4.899 -0.4210 -1.7480 -1.3489
 2059SOL     OW 5995   3.188   1.194   2.607 -0.0481 -0.3573  0.2566
 2059SOL    HW1 5996   3.202   1.250   2.525 -1.1804 -5.0680 -3.6227
 2059SOL    HW2 5997   3.276   1.157   2.638  0.1857  0.0479  0.0852
 2060SOL     OW 5998   4.207   2.047   3.078  0.2050  0.2915  0.4556
 2060SOL    HW1 5999   4.280   2.114   3.083 -0.4743  0.9617  1.9555
 2060SOL    HW2 6000   4.119   2.091   3.097 -0.5490 -0.5889 -0.7995
 2061SOL     OW 6001   4.860   4.615   3.513  0.0672 -0.0715 -0.4659
 2061SOL    HW1 6002   4.851   4.557   3.433  0.3073 -0.7560 -0.0066
 2061SOL    HW2 6003   4.795   4.586   3.583 -0.9159  1.2177 -0.8000
 2062SOL     OW 6004   3.648   1.144   4.170  0.0526  0.2112  0.7303
 2062SOL    HW1 6005   3.606   1.177   4.085  2.0424  1.8437  0.3003
 2062SOL    HW2 6006   3.626   1.207   4.244 -1.4530 -1.0658  1.4244
 2063SOL     OW 6007   1.829   1.759   3.751 -0.4454 -0.2851  0.3097
 2063SOL    HW1 6008   1.750   1.722   3.702 -0.6343 -0.1623  0.5199
 2063SOL    HW2 6009   1.844   1.707   3.835 -0.4774 -0.1289  0.4132
 2064SOL     OW 6010   0.041   1.039   1.889 -0.5057 -0.0167 -0.1763
 2064SOL    HW1 6011   0.006   0.990   1.969  0.2182  1.9759  1.4600
 2064SOL    HW2 6012  -0.034   1.059   1.826 -1.1673 -1.2814  0.1894
 2065SOL     OW 6013   3.013   0.282   3.064  0.2535 -0.0597 -0.0026
 2065SOL    HW1 6014   2.976   0.374   3.056 -0.5587 -0.4331 -0.7661
 2065SOL    HW2 6015   3.052   0.254   2.976 -0.3402 -0.7780 -0.0502
 2066SOL     OW 6016   4.501   0.066   2.949 -0.5362 -0.4991  1.2957
 2066SOL    HW1 6017   4.513   0.129   2.872 -0.8763 -1.3166  0.5585
 2066SOL    HW2 6018   4.513   0.116   3.035  1.6884  0.0799  0.7187
 2067SOL     OW 6019   1.904   1.841   1.171 -0.2906 -0.5035 -0.5441
 2067SOL    HW1 6020   1.807   1.832   1.147 -0.1868  0.3437 -1.3436
 2067SOL    HW2 6021   1.926   1.778   1.246 -1.5923 -0.2910  0.0494
 2068SOL     OW 6022   0.462   4.763   4.194  0.0660 -0.8622 -0.6063
 2068SOL    HW1 6023   0.512   4.689   4.239 -1.0473 -1.1361  0.2027
 2068SOL    HW2 6024   0.519   4.801   4.121  0.3836 -2.9843 -1.5468
 2069SOL     OW 6025   3.131   1.183   3.075  0.1489  0.0239 -0.0415
 2069SOL    HW1 6026   3.202   1.113   3.086 -0.4759 -1.0644 -2.1712
 2069SOL    HW2 6027   3.045   1.150   3.114  0.4082  0.6591  1.1012
 2070SOL     OW 6028   3.691   1.012   0.942 -0.0219  0.6973 -0.9771
 2070SOL    HW1 6029   3.679   0.928   0.995  1.9815  0.1234 -1.3572
 2070SOL    HW2 6030   3.665   0.996   0.847  2.5284 -0.2819 -1.6020
 2071SOL     OW 6031   1.639   4.168   2.713  0.6019 -0.5328 -0.6774
 2071SOL    HW1 6032   1.597   4.213   2.635  0.7261  0.3639 -0.2370
 2071SOL    HW2 6033   1.739   4.167   2.703  0.6883  0.4971 -0.0672
 2072SOL     OW 6034   4.311   3.289   1.104  0.2756  0.8778 -0.2834
 2072SOL    HW1 6035   4.371   3.331   1.172 -1.7400  2.5522  0.5726
 2072SOL    HW2 6036   4.285   3.197   1.134  1.7863  0.4026 -0.3338
 2073SOL     OW 6037   4.387   4.798   3.431  0.7070  0.2082  0.5984
 2073SOL    HW1 6038   4.325   4.722   3.450 -0.0416  0.6733  0.0577
 2073SOL    HW2 6039   4.454   4.770   3.361 -0.3218  0.4026 -0.4962
 2074SOL     OW 6040   1.954   1.686   0.468 -0.2189  0.1708 -0.0761
 2074SOL    HW1 6041   2.015   1.635   0.529 -0.4427 -1.8536 -1.4696
 2074SOL    HW2 6042   1.873   1.632   0.449 -1.3837  1.8682 -0.1469
 2075SOL     OW 6043   3.856   0.688   3.262  0.0940 -0.5204  0.4386
 2075SOL    HW1 6044   3.756   0.687   3.255 -0.0338 -1.2030  1.9025
 2075SOL    HW2 6045   3.883   0.762   3.324  0.4873 -0.5015  0.2450
 2076SOL     OW 6046   3.138   2.652   2.900 -0.1874  0.3393 -0.1334
 2076SOL    HW1 6047   3.232   2.617   2.903  0.3907  1.8868  1.5151
 2076SOL    HW2 6048   3.086   2.601   2.832  1.1299 -2.3241  0.7248
 2077SOL     OW 6049   2.680   0.693   2.261  0.6766  0.1081 -0.1561
 2077SOL    HW1 6050   2.673   0.788   2.230  0.0417  0.6310  1.4801
 2077SOL    HW2 6051   2.632   0.633   2.197 -1.0060  1.2037  0.0192
 2078SOL     OW 6052   2.627   1.507   1.210  0.6082 -0.3031 -0.5684
 2078SOL    HW1 6053   2.565   1.433   1.185  0.0795 -0.5860  1.4094
 2078SOL    HW2 6054   2.629   1.575   1.137 -2.1799 -0.1723 -0.6116
 2079SOL     OW 6055   3.362   4.773   3.990 -0.1800  0.0176  0.3946
 2079SOL    HW1 6056   3.416   4.830   3.928  0.5348 -0.5567  0.4678
 2079SOL    HW2 6057   3.406   4.772   4.080  0.7493 -1.8976 -0.0139
 2080SOL     OW 6058   2.072   0.694   0.881 -0.4646  0.0169  0.0969
 2080SOL    HW1 6059   2.025   0.735   0.803  0.9430  1.3790 -0.0771
 2080SOL    HW2 6060   2.149   0.638   0.848  0.2611  0.7626  0.4862
 2081SOL     OW 6061   2.416   1.259   1.762 -0.1511 -0.0449 -0.2051
 2081SOL    HW1 6062   2.390   1.186   1.699 -1.1276 -1.4634  1.7234
 2081SOL    HW2 6063   2.344   1.330   1.762 -0.3759 -0.2720 -0.3343
 2082SOL     OW 6064   1.799   4.586   2.492 -0.1504 -0.2172  0.1819
 2082SOL    HW1 6065   1.829   4.491   2.480 -0.3878 -0.5586  2.0350
 2082SOL    HW2 6066   1.862   4.633   2.554 -0.4101  0.6568 -0.2060
 2083SOL     OW 6067   2.302   4.505   1.069  0.2603 -0.4843 -0.1305
 2083SOL    HW1 6068   2.397   4.534   1.068 -0.2955  1.4346 -1.0251
 2083SOL    HW2 6069   2.275   4.482   1.163  0.5762  2.6391  0.8311
 2084SOL     OW 6070   1.651   1.317   4.314  0.1331  0.2768  0.0646
 2084SOL    HW1 6071   1.583   1.247   4.290  0.8446 -0.9312  1.4237
 2084SOL    HW2 6072   1.737   1.273   4.338  1.4325  1.7902 -1.5772
 2085SOL     OW 6073   2.981   1.176   2.765  0.2255  0.3085  0.0678
 2085SOL    HW1 6074   3.066   1.177   2.713  0.5228  1.1659  0.5513
 2085SOL    HW2 6075   2.988   1.238   2.843 -1.2049  1.1752 -0.4479
 2086SOL     OW 6076   2.095   2.812   1.386  0.0436 -0.2623  0.0303
 2086SOL    HW1 6077   2.088   2.749   1.308 -0.5457 -1.4544  1.0165
 2086SOL    HW2 6078   2.187   2.808   1.423 -0.2275 -1.2398  0.6341
 2087SOL     OW 6079   1.539   3.508   3.292 -0.1921 -0.4013  0.2092
 2087SOL    HW1 6080   1.637   3.524   3.284  0.0109 -2.1209 -1.9533
 2087SOL    HW2 6081   1.492   3.548   3.213 -0.6840 -2.7333 -0.7842
 2088SOL     OW 6082   4.010   1.501   4.393 -0.4841 -0.0254  0.5438
 2088SOL    HW1 6083   3.961   1.482   4.478 -1.6996 -1.2049 -0.3708
 2088SOL    HW2 6084   3.985   1.432   4.324  1.8555 -0.1952 -0.2337
 2089SOL     OW 6085   2.180   4.185   2.996 -0.0526 -0.7801  0.3111
 2089SOL    HW1 6086   2.265   4.191   3.048 -0.8933  0.7077  1.5749
 2089SOL    HW2 6087   2.201   4.178   2.899  1.4973  0.0611  0.5600
 2090SOL     OW 6088   1.738   1.119   4.100 -0.3093 -0.6222  0.2908
 2090SOL    HW1 6089   1.780   1.087   4.015 -0.4208 -0.3104  0.1155
 2090SOL    HW2 6090   1.710   1.214   4.089 -1.5239 -0.9724  0.2337
 2091SOL     OW 6091   3.904   1.641   3.132  0.6726  0.1623 -0.0503
 2091SOL    HW1 6092   3.993   1.663   3.093  0.3130 -0.3509 -1.1968
 2091SOL    HW2 6093   3.870   1.719   3.185  0.9570  1.0593 -1.1647
 2092SOL     OW 6094   4.936   1.649   3.708  0.0956 -0.1098 -0.1783
 2092SOL    HW1 6095   4.863   1.661   3.776  1.0278  0.9563  0.6729
 2092SOL    HW2 6096   4.999   1.578   3.739 -0.1796 -0.5307 -0.5700
 2093SOL     OW 6097   4.219   3.083   4.720  0.4132 -0.5290  0.3934
 2093SOL    HW1 6098   4.225   3.019   4.797 -0.1910 -3.1871 -1.5980
 2093SOL    HW2 6099   4.139   3.141   4.730 -0.0779 -1.3494  1.3897
 2094SOL     OW 6100   2.008   0.688   1.790  0.6334  0.0695 -0.8337
 2094SOL    HW1 6101   1.975   0.602   1.752  1.1987 -0.3297 -0.4326
 2094SOL    HW2 6102   2.099   0.675   1.831  2.3300  1.5887 -3.7742
 2095SOL     OW 6103   3.786   1.521   2.919 -0.3955  0.6508  0.5407
 2095SOL    HW1 6104   3.823   1.580   2.992  0.7527 -0.5577  0.9806
 2095SOL    HW2 6105   3.814   1.427   2.936 -0.6188  0.2563 -1.1519
 2096SOL     OW 6106   3.833   0.876   2.668 -0.1581 -0.2953  0.5005
 2096SOL    HW1 6107   3.848   0.905   2.574  2.4816  0.9057  1.1890
 2096SOL    HW2 6108   3.737   0.852   2.681 -1.0984  1.7800 -1.8764
 2097SOL     OW 6109   3.038   1.076   1.752  0.5742  0.0890 -0.2430
 2097SOL    HW1 6110   3.078   1.164   1.726  2.6342  0.0678  2.3662
 2097SOL    HW2 6111   2.950   1.090   1.796 -1.0422  0.4135 -3.3454
 2098SOL     OW 6112   2.885   0.560   2.706 -0.0439 -0.1951 -0.0353
 2098SOL    HW1 6113   2.814   0.508   2.755  0.7941 -2.1403 -0.7953
 2098SOL    HW2 6114   2.846   0.600   2.623 -0.7908  0.7701  0.7522
 2099SOL     OW 6115   2.635   0.910   2.557 -0.3208  0.4672 -0.0680
 2099SOL    HW1 6116   2.558   0.846   2.549  0.5123 -0.9514  2.3404
 2099SOL    HW2 6117   2.719   0.864   2.529 -0.0792  1.5400 -1.2215
 2100SOL     OW 6118   2.519   0.858   4.321 -0.2024 -0.1333  0.3729
 2100SOL    HW1 6119   2.428   0.824   4.296 -1.0769  1.0391  1.8227
 2100SOL    HW2 6120   2.588   0.793   4.289 -1.5177 -0.9474 -0.9448
 2101SOL     OW 6121   4.032   2.008   3.476 -0.8617 -0.3695  0.1482
 2101SOL    HW1 6122   3.966   2.035   3.547  0.5177  0.2033  1.2700
 2101SOL    HW2 6123   4.098   2.082   3.462  0.0202 -1.2304 -0.3644
 2102SOL     OW 6124   3.869   1.462   3.997  0.4414  0.1351 -0.2104
 2102SOL    HW1 6125   3.951   1.500   3.954  0.3714 -0.5206 -0.9560
 2102SOL    HW2 6126   3.877   1.362   4.001 -0.5835  0.0176 -0.8581
 2103SOL     OW 6127   1.492   1.248   1.950 -0.2715 -0.0838  0.1867
 2103SOL    HW1 6128   1.554   1.321   1.980  0.7387 -0.5576 -0.6658
 2103SOL    HW2 6129   1.545   1.167   1.926 -1.2861 -0.7129  0.0057
 2104SOL     OW 6130   0.642   0.472   3.063  0.0055  0.4934  0.1000
 2104SOL    HW1 6131   0.575   0.539   3.032 -0.1539  0.2523 -0.0797
 2104SOL    HW2 6132   0.594   0.389   3.092  0.3293 -0.3571 -1.7095
 2105SOL     OW 6133   2.095   0.838   2.897 -0.0377  0.3744  0.4543
 2105SOL    HW1 6134   2.186   0.867   2.927  0.2620 -1.0859  1.0413
 2105SOL    HW2 6135   2.097   0.816   2.800  0.2891  0.1772  0.5036
 2106SOL     OW 6136   2.291   0.652   3.956 -0.1477  0.0038  0.5335
 2106SOL    HW1 6137   2.348   0.570   3.959 -0.4802 -0.1968  1.8768
 2106SOL    HW2 6138   2.218   0.639   3.889  0.9583  0.0053 -0.7207
 2107SOL     OW 6139   3.490   0.973   3.508 -0.3227 -0.3647  1.1251
 2107SOL    HW1 6140   3.481   0.908   3.584  0.6032 -1.4071  0.3733
 2107SOL    HW2 6141   3.412   0.963   3.446 -0.3783 -0.4886  1.2143
 2108SOL     OW 6142   2.889   4.660   2.857 -0.9348  0.0966  0.2482
 2108SOL    HW1 6143   2.855   4.578   2.810  0.1721 -1.5103  2.0794
 2108SOL    HW2 6144   2.982   4.642   2.890 -0.5334  2.2507  0.3928
 2109SOL     OW 6145   2.370   4.932   2.677 -0.3435  0.3612  0.1404
 2109SOL    HW1 6146   2.299   5.002   2.665  0.8622  1.6641  0.2673
 2109SOL    HW2 6147   2.387   4.918   2.774 -0.7817 -0.3202  0.1188
 2110SOL     OW 6148   3.796   0.270   2.550 -0.0152  0.7416 -0.6421
 2110SOL    HW1 6149   3.820   0.187   2.600  1.5981  1.5045 -0.0303
 2110SOL    HW2 6150   3.698   0.273   2.534  0.1512 -2.9099 -3.7405
 2111SOL     OW 6151   2.876   1.025   4.165 -0.0743  0.6193  0.2023
 2111SOL    HW1 6152   2.882   1.083   4.084 -0.7853 -1.3877 -1.3379
 2111SOL    HW2 6153   2.968   1.010   4.201  0.3091  1.0451 -0.5699
 2112SOL     OW 6154   3.182   0.501   3.891 -0.2428 -0.2891 -0.1855
 2112SOL    HW1 6155   3.170   0.601   3.890 -0.6532 -0.3343 -0.6079
 2112SOL    HW2 6156   3.131   0.462   3.968  2.1080  0.0516  1.6586
 2113SOL     OW 6157   3.505   2.967   3.295  0.0340  0.0072 -0.2020
 2113SOL    HW1 6158   3.430   2.906   3.269  0.5563 -0.8376  0.2324
 2113SOL    HW2 6159   3.516   3.038   3.225 -2.2022  1.1368  0.4976
 2114SOL     OW 6160   3.496   2.593   3.374  0.0865  0.3638 -0.5454
 2114SOL    HW1 6161   3.426   2.658   3.347  0.4581  1.3011  0.6868
 2114SOL    HW2 6162   3.492   2.577   3.472  1.9090  0.8420 -0.3514
 2115SOL     OW 6163   3.799   1.326   3.595  0.1264  0.0631  0.1271
 2115SOL    HW1 6164   3.783   1.324   3.497  1.2092  1.3547 -0.1017
 2115SOL    HW2 6165   3.757   1.408   3.634  0.5284  0.0587  0.5805
 2116SOL     OW 6166   3.385   4.180   2.568 -0.4925  0.0593  0.3139
 2116SOL    HW1 6167   3.404   4.277   2.551  0.8575 -0.2536 -0.0295
 2116SOL    HW2 6168   3.342   4.170   2.657 -0.4310  0.9516  0.4548
 2117SOL     OW 6169   2.718   4.816   3.051 -0.4443  0.2008 -0.2118
 2117SOL    HW1 6170   2.782   4.874   3.102 -1.9023  0.4593  1.4102
 2117SOL    HW2 6171   2.770   4.757   2.988  1.2647  1.3241  0.0496
 2118SOL     OW 6172   4.953   1.250   3.707 -0.0073 -0.2850  0.0673
 2118SOL    HW1 6173   4.931   1.163   3.749 -0.3852  0.2379  0.9773
 2118SOL    HW2 6174   4.870   1.291   3.668 -0.0440  0.1720  0.6126
 2119SOL     OW 6175   1.972   0.586   3.000 -0.6090  0.4267  0.5882
 2119SOL    HW1 6176   1.976   0.676   2.957  0.9771  0.1373  0.0568
 2119SOL    HW2 6177   1.980   0.515   2.930 -0.7774 -0.1041  1.0978
 2120SOL     OW 6178   0.834   4.540   1.092 -0.2030  0.4607 -0.2479
 2120SOL    HW1 6179   0.885   4.579   1.168  0.1453  0.6266 -0.5655
 2120SOL    HW2 6180   0.750   4.593   1.078  0.2337  1.0625 -0.6320
 2121SOL     OW 6181   2.699   2.023   1.588  0.8458  0.0994  0.0126
 2121SOL    HW1 6182   2.706   1.959   1.512 -0.3284  1.0916 -0.9660
 2121SOL    HW2 6183   2.761   1.994   1.661  0.0358 -2.4050 -0.1855
 2122SOL     OW 6184   4.459   1.622   0.305  0.3252 -0.2474  0.1917
 2122SOL    HW1 6185   4.368   1.584   0.288 -0.1752  1.3515 -0.9694
 2122SOL    HW2 6186   4.526   1.548   0.309 -0.7295 -1.3085 -0.9598
 2123SOL     OW 6187   0.076   3.019   3.632  0.4482 -0.1655 -0.0295
 2123SOL    HW1 6188   0.096   2.927   3.664  0.0234 -0.2996 -0.1359
 2123SOL    HW2 6189   0.155   3.078   3.648  0.0725 -0.0856  1.7671
 2124SOL     OW 6190   1.345   1.424   3.604  0.1884  0.3593 -0.3605
 2124SOL    HW1 6191   1.391   1.417   3.516 -0.3129  0.2790 -0.6164
 2124SOL    HW2 6192   1.260   1.475   3.594  0.0670  0.2482  0.0560
 2125SOL     OW 6193   3.130   0.246   4.563 -0.0712 -1.0118 -0.2038
 2125SOL    HW1 6194   3.169   0.231   4.654  1.9370  0.6900 -0.6795
 2125SOL    HW2 6195   3.182   0.193   4.496 -0.5477 -1.0660 -0.5322
 2126SOL     OW 6196   1.856   2.642   0.876  0.0639  0.7671 -0.3275
 2126SOL    HW1 6197   1.885   2.592   0.794  2.2767 -1.0635  1.3922
 2126SOL    HW2 6198   1.811   2.579   0.939  0.7804  1.4607  0.9283
 2127SOL     OW 6199   2.009   0.248   1.206  0.1858 -0.1378  0.0905
 2127SOL    HW1 6200   2.003   0.192   1.289 -1.1330  0.0254  0.1315
 2127SOL    HW2 6201   1.926   0.303   1.198 -0.6821 -1.6765 -2.4095
 2128SOL     OW 6202   1.343   1.583   0.040 -0.0214 -0.7808 -0.2425
 2128SOL    HW1 6203   1.316   1.667   0.086 -1.1971  0.5708 -3.1523
 2128SOL    HW2 6204   1.443   1.577   0.036  0.0824  0.9013 -0.6762
 2129SOL     OW 6205   3.122   4.996   4.728  0.0488  0.2852 -0.3541
 2129SOL    HW1 6206   3.033   5.042   4.730 -0.3304 -0.4434  0.1626
 2129SOL    HW2 6207   3.187   5.048   4.783 -0.2587  0.4412 -0.1319
 2130SOL     OW 6208   3.145   1.103   4.606  0.3737  0.4680  0.0476
 2130SOL    HW1 6209   3.130   1.194   4.645  1.6108  0.9843 -0.6017
 2130SOL    HW2 6210   3.065   1.046   4.621  0.0677  1.2588  1.5928
 2131SOL     OW 6211   1.125   1.280   3.868  0.8115  0.2696  0.4066
 2131SOL    HW1 6212   1.214   1.262   3.825  0.4878 -0.1198 -0.1284
 2131SOL    HW2 6213   1.128   1.366   3.918  0.9686  1.2096 -1.1288
 2132SOL     OW 6214   1.795   2.066   2.135 -0.3312 -0.4248  0.2804
 2132SOL    HW1 6215   1.840   2.107   2.055 -0.9216 -0.7523 -0.2216
 2132SOL    HW2 6216   1.785   2.136   2.206 -0.6024  0.0982 -0.2642
 2133SOL     OW 6217   1.965   0.424   1.983 -0.7489  0.1722  0.0586
 2133SOL    HW1 6218   1.899   0.426   1.908 -2.4506  0.1859  1.4694
 2133SOL    HW2 6219   2.051   0.385   1.952 -1.8858 -1.2187 -1.5183
 2134SOL     OW 6220   1.414   1.210   4.184 -0.4504  0.0535 -0.6256
 2134SOL    HW1 6221   1.389   1.194   4.088 -1.4339 -1.0590 -0.2048
 2134SOL    HW2 6222   1.395   1.128   4.238  0.6842  0.4521  0.4256
 2135SOL     OW 6223   1.154   0.491   0.412 -0.0467 -0.2512 -0.0091
 2135SOL    HW1 6224   1.219   0.416   0.423  0.0645 -0.1095  0.3215
 2135SOL    HW2 6225   1.144   0.513   0.315  2.2055  1.2852  0.0360
 2136SOL     OW 6226   3.216   3.319   4.772  0.6391 -0.1670 -0.5396
 2136SOL    HW1 6227   3.277   3.380   4.722  0.7315 -0.0726 -0.3138
 2136SOL    HW2 6228   3.142   3.288   4.712 -0.4422  1.5839 -0.1846
 2137SOL     OW 6229   1.808   2.039   3.780  0.1336 -0.4606 -0.1984
 2137SOL    HW1 6230   1.813   1.939   3.780 -0.9337 -0.5224 -0.9195
 2137SOL    HW2 6231   1.867   2.074   3.708  1.0550 -0.5165  0.4999
 2138SOL     OW 6232   2.810   1.238   3.628 -0.2209  0.2480 -0.5696
 2138SOL    HW1 6233   2.790   1.238   3.530 -3.2977  0.3942 -0.0131
 2138SOL    HW2 6234   2.821   1.332   3.660 -0.3557  0.2581 -0.5547
 2139SOL     OW 6235   3.029   2.402   4.288  0.3379  0.3282  0.1581
 2139SOL    HW1 6236   3.070   2.317   4.252  0.2201 -0.0387  0.8676
 2139SOL    HW2 6237   3.068   2.422   4.378  1.0026  1.5099 -0.3690
 2140SOL     OW 6238   2.018   4.920   0.850  0.2267 -0.4683 -0.7207
 2140SOL    HW1 6239   2.081   4.863   0.902 -1.0361 -1.0928  0.1686
 2140SOL    HW2 6240   2.068   4.996   0.809  1.9812 -2.2123 -2.0096
 2141SOL     OW 6241   2.493   5.012   4.019 -0.3480  0.1132  0.9872
 2141SOL    HW1 6242   2.486   4.965   3.931 -1.0695  1.9890 -0.0309
 2141SOL    HW2 6243   2.455   4.954   4.091  1.3147 -1.9365  0.2984
 2142SOL     OW 6244   1.108   0.815   4.016  0.1822  0.0242 -0.5550
 2142SOL    HW1 6245   1.066   0.801   3.926 -0.1834 -0.3451 -0.3287
 2142SOL    HW2 6246   1.084   0.906   4.050  1.4342  0.7083 -1.4235
 2143SOL     OW 6247   4.738   2.362   3.666 -0.1184  0.1317 -0.3919
 2143SOL    HW1 6248   4.732   2.459   3.690  1.6605  0.0842  0.3645
 2143SOL    HW2 6249   4.825   2.325   3.697 -1.0401 -1.8967 -0.0544
 2144SOL     OW 6250   1.962   0.438   0.621 -0.2406 -0.4874 -0.0634
 2144SOL    HW1 6251   1.905   0.360   0.593  1.7294 -1.5013 -1.5604
 2144SOL    HW2 6252   2.009   0.416   0.706 -0.1123 -0.7164 -0.1925
 2145SOL     OW 6253   3.626   0.442   3.779  0.2443  0.1313  0.1299
 2145SOL    HW1 6254   3.589   0.534   3.791  0.4676  0.2841 -0.3221
 2145SOL    HW2 6255   3.679   0.438   3.694 -3.1944 -1.5204 -2.1522
 2146SOL     OW 6256   2.069   0.202   4.193  0.6341  0.1771  0.1204
 2146SOL    HW1 6257   2.099   0.108   4.206  1.4984  0.4657  0.2597
 2146SOL    HW2 6258   2.075   0.227   4.096  0.0364 -0.0265  0.0256
 2147SOL     OW 6259   3.256   0.875   0.281  0.1232  1.0186  0.1014
 2147SOL    HW1 6260   3.170   0.859   0.329 -0.5502 -0.5694 -1.5105
 2147SOL    HW2 6261   3.324   0.806   0.310 -0.7940 -1.0265 -2.2451
 2148SOL     OW 6262   4.336   2.310   4.552 -0.0824  0.2732 -0.4820
 2148SOL    HW1 6263   4.408   2.296   4.619 -0.8044 -2.5711 -0.1960
 2148SOL    HW2 6264   4.262   2.363   4.595  0.3832  0.3339  0.2743
 2149SOL     OW 6265   3.203   0.591   4.670  0.2169 -0.4242 -0.0406
 2149SOL    HW1 6266   3.302   0.600   4.659  0.1653 -0.1877 -0.3152
 2149SOL    HW2 6267   3.163   0.681   4.682 -0.1410 -0.3805 -1.4163
 2150SOL     OW 6268   3.295   1.812   1.111 -0.3344  0.2867  0.1988
 2150SOL    HW1 6269   3.311   1.849   1.202 -0.3627 -0.9425  0.7210
 2150SOL    HW2 6270   3.200   1.779   1.104  0.1653 -1.2501  0.3376
 2151SOL     OW 6271   1.443   0.085   4.737  0.0526 -0.2494  0.0620
 2151SOL    HW1 6272   1.539   0.081   4.766 -0.0715 -0.8634  0.3879
 2151SOL    HW2 6273   1.394   0.150   4.794  0.6599  1.4566 -1.2506
 2152SOL     OW 6274   1.318   4.808   3.030 -0.0430  0.4115 -0.0299
 2152SOL    HW1 6275   1.328   4.906   3.047  0.1503  0.3646  0.1312
 2152SOL    HW2 6276   1.399   4.775   2.981 -0.2600  0.3982 -0.3869
 2153SOL     OW 6277   3.431   1.409   3.485  0.1147  0.1670  0.0505
 2153SOL    HW1 6278   3.365   1.341   3.517  0.0749  0.0550 -0.2716
 2153SOL    HW2 6279   3.438   1.406   3.386  0.3447  0.4206  0.0554
 2154SOL     OW 6280   0.615   0.678   0.153  0.4638  0.0916 -0.2362
 2154SOL    HW1 6281   0.704   0.654   0.114  0.3551 -0.2629 -0.2630
 2154SOL    HW2 6282   0.544   0.667   0.084  0.4814  1.0371 -0.4236
 2155SOL     OW 6283   3.607   0.386   4.240 -0.7412  0.6450 -0.8003
 2155SOL    HW1 6284   3.643   0.468   4.286 -1.6153  0.8000 -0.3700
 2155SOL    HW2 6285   3.663   0.366   4.160  2.6489 -1.2781  1.7768
 2156SOL     OW 6286   3.159   3.199   3.812 -0.0319  0.0361 -0.3372
 2156SOL    HW1 6287   3.149   3.260   3.891 -0.3347  0.9637 -1.0686
 2156SOL    HW2 6288   3.244   3.147   3.822  0.3084  0.6744  0.2537
 2157SOL     OW 6289   1.231   1.171   0.196 -0.1336  0.1417 -0.2547
 2157SOL    HW1 6290   1.138   1.197   0.224 -0.1214 -0.4358  0.3431
 2157SOL    HW2 6291   1.260   1.229   0.120 -1.0079  0.2860 -0.4910
 2158SOL     OW 6292   0.549   1.003   4.518 -0.0468  0.7804  1.0383
 2158SOL    HW1 6293   0.530   0.970   4.611  1.8865  0.0117  1.2039
 2158SOL    HW2 6294   0.540   0.926   4.454 -1.2652  1.2836  0.5728
 2159SOL     OW 6295   4.730   0.008   0.260 -0.0951  0.3643  0.4271
 2159SOL    HW1 6296   4.699  -0.079   0.297  1.3283 -0.2142  0.3016
 2159SOL    HW2 6297   4.655   0.050   0.208 -0.9316 -0.5643  0.8409
 2160SOL     OW 6298   3.460   1.694   4.428  0.2084 -0.1179 -0.1934
 2160SOL    HW1 6299   3.434   1.604   4.462 -1.9899  0.3335 -0.4768
 2160SOL    HW2 6300   3.445   1.698   4.329  0.7058  0.4253 -0.2550
 2161SOL     OW 6301   2.577   2.338   3.553 -0.2356  0.0589 -0.3479
 2161SOL    HW1 6302   2.653   2.394   3.585 -0.4489 -0.3242  0.8765
 2161SOL    HW2 6303   2.525   2.388   3.484 -0.3294  1.3261  0.6056
 2162SOL     OW 6304   0.628   1.563   3.333 -0.3674  0.0425 -0.1602
 2162SOL    HW1 6305   0.604   1.660   3.329  1.0190  0.4671  1.0076
 2162SOL    HW2 6306   0.665   1.534   3.244 -1.8255  0.2663 -0.8648
 2163SOL     OW 6307   3.983   1.037   2.006  0.1688  0.5789  0.2286
 2163SOL    HW1 6308   4.069   0.992   2.028 -0.1603 -0.8971 -1.3222
 2163SOL    HW2 6309   4.001   1.120   1.952  0.6058 -0.7116 -1.7090
 2164SOL     OW 6310   0.096   0.573   0.372  0.4838  0.2210 -0.0483
 2164SOL    HW1 6311   0.008   0.613   0.395  0.3838  0.7236 -1.2233
 2164SOL    HW2 6312   0.167   0.643   0.376  0.8294 -0.1744  0.8601
 2165SOL     OW 6313   1.667   1.620   4.552 -0.2648 -0.2077 -0.3259
 2165SOL    HW1 6314   1.584   1.565   4.561  0.0391 -0.9242 -1.6115
 2165SOL    HW2 6315   1.747   1.566   4.578 -0.1145  0.1889  0.0473
 2166SOL     OW 6316   3.010   0.731   0.418 -0.2368  0.5272  0.0116
 2166SOL    HW1 6317   2.969   0.640   0.414  0.5164  0.2102 -1.5177
 2166SOL    HW2 6318   3.017   0.761   0.513  0.1241 -1.2964  0.5956
 2167SOL     OW 6319   2.919   4.582   4.535  0.1024  0.6511  0.1681
 2167SOL    HW1 6320   2.841   4.562   4.476  2.4223 -1.0921 -2.6169
 2167SOL    HW2 6321   2.965   4.496   4.559  2.2261  1.6886  0.0806
 2168SOL     OW 6322   1.411   0.737   3.579 -0.3729  0.6004 -0.1659
 2168SOL    HW1 6323   1.438   0.696   3.492  0.9313  1.9546 -0.4404
 2168SOL    HW2 6324   1.316   0.713   3.600 -0.4845 -0.3009 -1.6097
 2169SOL     OW 6325   2.809   0.209   0.451 -0.2165  0.5555 -0.2215
 2169SOL    HW1 6326   2.807   0.144   0.527  0.7508  0.3784 -0.3344
 2169SOL    HW2 6327   2.894   0.197   0.400 -0.7314  0.8560 -1.1721
 2170SOL     OW 6328   3.367   4.972   0.250 -0.7479  0.5750 -0.0076
 2170SOL    HW1 6329   3.291   4.975   0.316 -1.7058  0.8286 -1.0988
 2170SOL    HW2 6330   3.353   4.896   0.186  1.2924 -1.0632  1.3293
 2171SOL     OW 6331   3.997   1.406   3.258  0.4189  0.1475  0.6012
 2171SOL    HW1 6332   3.978   1.488   3.204  0.6667 -1.2379 -1.7241
 2171SOL    HW2 6333   3.911   1.369   3.295 -0.0310  0.0256 -0.5433
 2172SOL     OW 6334   1.885   0.987   3.004 -0.1110  1.0759 -0.0141
 2172SOL    HW1 6335   1.802   0.978   2.949 -1.2630  1.8590  1.5113
 2172SOL    HW2 6336   1.955   0.925   2.969 -1.4181  0.1901 -1.1880
 2173SOL     OW 6337   3.699   1.286   4.930 -0.1645 -0.4185 -0.5880
 2173SOL    HW1 6338   3.692   1.284   5.030 -0.6497  0.8434 -0.5725
 2173SOL    HW2 6339   3.762   1.215   4.899  0.1918 -0.6545  0.6387
 2174SOL     OW 6340   1.140   0.643   3.568 -0.2572 -0.1469 -0.2328
 2174SOL    HW1 6341   1.070   0.643   3.496  2.3182 -1.6924 -2.9804
 2174SOL    HW2 6342   1.151   0.550   3.603  0.1404  0.1577  0.4617
 2175SOL     OW 6343   2.416   0.675   1.031 -0.3450 -0.4511 -0.2694
 2175SOL    HW1 6344   2.476   0.684   1.111  0.3154 -0.6294 -0.7445
 2175SOL    HW2 6345   2.369   0.762   1.016 -0.5132 -0.4268  0.3385
 2176SOL     OW 6346   4.059   2.218   0.481 -0.7432  0.2807  0.1041
 2176SOL    HW1 6347   4.061   2.259   0.390  1.2461 -0.7179 -0.3401
 2176SOL    HW2 6348   4.150   2.220   0.521 -1.1744 -1.1639  1.2296
 2177SOL     OW 6349   2.785   0.829   0.236  0.2572 -0.2562 -0.5393
 2177SOL    HW1 6350   2.880   0.826   0.268  0.5787 -1.5294 -1.5142
 2177SOL    HW2 6351   2.751   0.736   0.225 -0.3643  0.1438 -2.3039
 2178SOL     OW 6352   1.400   1.891   1.512  0.0507 -0.2023  0.1681
 2178SOL    HW1 6353   1.470   1.942   1.563  0.8135 -0.3942 -0.6752
 2178SOL    HW2 6354   1.373   1.943   1.431 -0.6464 -0.2259  0.3785
 2179SOL     OW 6355   2.844   4.770   3.777 -0.4146 -0.2340  0.0596
 2179SOL    HW1 6356   2.798   4.789   3.864  0.2808 -0.5386  0.5034
 2179SOL    HW2 6357   2.942   4.759   3.794 -0.0179  1.3616 -0.9872
 2180SOL     OW 6358   3.961   4.606   0.202 -0.0874 -0.2172 -0.3919
 2180SOL    HW1 6359   3.874   4.598   0.249  0.4367 -2.5016  0.3132
 2180SOL    HW2 6360   4.005   4.516   0.196  1.3026  0.5051 -2.5322
 2181SOL     OW 6361   2.883   0.125   3.744  0.1321 -0.0273 -0.4352
 2181SOL    HW1 6362   2.795   0.154   3.707  0.3696 -0.0223 -1.0133
 2181SOL    HW2 6363   2.905   0.033   3.712 -0.3055 -0.5959  0.8529
 2182SOL     OW 6364   2.625   3.751   3.486 -0.3595 -0.4080 -0.1257
 2182SOL    HW1 6365   2.630   3.665   3.434  2.1853  1.1581 -2.8147
 2182SOL    HW2 6366   2.582   3.822   3.430 -0.7384  0.5575  1.3252
 2183SOL     OW 6367   2.773   0.629   3.472  0.6016 -0.3998 -0.4336
 2183SOL    HW1 6368   2.700   0.646   3.406  0.2221  2.3683  0.5934
 2183SOL    HW2 6369   2.749   0.551   3.529 -1.0665 -0.2080 -0.8185
 2184SOL     OW 6370   1.713   0.454   4.137  0.4772 -0.0523 -0.2747
 2184SOL    HW1 6371   1.810   0.439   4.118  1.4369  0.6057  3.2861
 2184SOL    HW2 6372   1.688   0.547   4.109  0.5452 -0.5436 -2.0937
 2185SOL     OW 6373   2.613   0.535   5.023  0.4780 -0.1489  0.0488
 2185SOL    HW1 6374   2.657   0.480   4.952  2.9738  1.3603  0.3100
 2185SOL    HW2 6375   2.623   0.632   5.002 -1.1026  0.3051  1.1543
 2186SOL     OW 6376   2.699   4.517   4.372 -0.0893  0.2383 -0.2328
 2186SOL    HW1 6377   2.604   4.540   4.393 -0.7269 -2.6218  0.4215
 2186SOL    HW2 6378   2.710   4.508   4.273 -1.0290 -1.2176 -0.2372
 2187SOL     OW 6379   0.816   4.683   2.847 -0.8787  0.3244 -0.5412
 2187SOL    HW1 6380   0.746   4.680   2.919  0.0278  0.8137  0.3898
 2187SOL    HW2 6381   0.809   4.770   2.797  0.4972  1.4353  1.0824
 2188SOL     OW 6382   4.068   3.075   0.377  0.1576  0.8680 -0.5448
 2188SOL    HW1 6383   4.092   3.151   0.437 -2.7346  1.2803  0.2336
 2188SOL    HW2 6384   4.115   2.992   0.408  1.8741  1.8830 -0.2598
 2189SOL     OW 6385   4.613   1.410   0.348  0.5858 -0.0983 -0.0213
 2189SOL    HW1 6386   4.661   1.370   0.270 -0.8898  0.1432 -1.0774
 2189SOL    HW2 6387   4.553   1.342   0.389  1.9666 -0.4911  1.4942
 2190SOL     OW 6388   1.715   2.132   4.807 -0.1533  0.5690  0.1573
 2190SOL    HW1 6389   1.683   2.038   4.794 -3.3736  1.1245  2.8890
 2190SOL    HW2 6390   1.798   2.131   4.864 -1.2448 -0.6385  1.8367
 2191SOL     OW 6391   2.051   4.986   2.437 -0.3294  0.1283 -0.3536
 2191SOL    HW1 6392   2.032   4.941   2.524  0.7505 -2.4896 -1.3571
 2191SOL    HW2 6393   1.975   4.971   2.374  0.1903 -0.6571 -0.8099
 2192SOL     OW 6394   2.950   1.762   4.934 -0.7168 -0.4749  0.0101
 2192SOL    HW1 6395   2.905   1.715   4.858 -1.8970 -1.0561  1.0317
 2192SOL    HW2 6396   2.930   1.714   5.020  0.5838  0.1672  0.7001
 2193SOL     OW 6397   1.904   0.692   0.035 -0.0127 -0.1497  0.0525
 2193SOL    HW1 6398   1.823   0.752   0.033  0.4029  0.5335  1.8123
 2193SOL    HW2 6399   1.982   0.741  -0.005 -0.0829 -0.1809 -0.1229
 2194SOL     OW 6400   3.114   1.026   4.292 -0.4829  0.0757  0.0900
 2194SOL    HW1 6401   3.112   1.102   4.357 -0.5015 -0.0386  0.2241
 2194SOL    HW2 6402   3.180   1.045   4.220 -0.0671 -0.0352  0.4360
 2195SOL     OW 6403   0.117   2.064   2.200 -0.5453 -0.6181  0.3058
 2195SOL    HW1 6404   0.102   2.100   2.108  0.0985  1.9030  1.1231
 2195SOL    HW2 6405   0.185   1.990   2.196 -0.4955 -0.5197 -1.2195
 2196SOL     OW 6406   3.277   3.112   4.938  0.0171 -0.3668  0.1149
 2196SOL    HW1 6407   3.261   3.192   4.882 -0.0885 -0.4220  0.0674
 2196SOL    HW2 6408   3.294   3.033   4.880 -0.9338 -0.6065  0.1456
 2197SOL     OW 6409   2.483   1.796   3.711 -0.4369 -0.1251 -0.2692
 2197SOL    HW1 6410   2.415   1.753   3.770  0.1331  0.2125  0.6426
 2197SOL    HW2 6411   2.491   1.893   3.733  1.0599 -0.3644  0.3384
 2198SOL     OW 6412   3.188   1.405   0.328 -0.2123 -0.0680 -0.6116
 2198SOL    HW1 6413   3.171   1.457   0.244 -1.1114  0.9308  0.1601
 2198SOL    HW2 6414   3.180   1.307   0.308 -1.8138  0.1891 -1.4085
 2199SOL     OW 6415   2.492   0.840   4.943  0.1503 -0.0980  0.0045
 2199SOL    HW1 6416   2.586   0.820   4.916  0.1872 -0.3027  0.2875
 2199SOL    HW2 6417   2.483   0.938   4.960 -0.0167  0.1354 -1.3092
 2200SOL     OW 6418   0.930   0.633   0.731  0.6215  0.1333  0.1568
 2200SOL    HW1 6419   0.832   0.626   0.714  0.7317 -0.8958 -0.1384
 2200SOL    HW2 6420   0.966   0.544   0.757  1.3133  0.7065  1.2476
 2201SOL     OW 6421   2.007   5.017   3.570 -0.5487  0.0051 -0.3341
 2201SOL    HW1 6422   1.915   4.979   3.571 -0.7655  0.5205  0.7401
 2201SOL    HW2 6423   2.030   5.048   3.478 -1.2463 -0.6029 -0.7194
 2202SOL     OW 6424   2.046   0.676   3.834  0.0404  0.1106 -0.3540
 2202SOL    HW1 6425   1.983   0.750   3.861  1.9358  2.2803 -1.5250
 2202SOL    HW2 6426   2.029   0.651   3.739 -0.1352 -0.4877 -0.1668
 2203SOL     OW 6427   0.789   0.139   0.971 -0.2520  0.3091  0.1728
 2203SOL    HW1 6428   0.854   0.163   1.043 -1.3573  1.6487  0.7920
 2203SOL    HW2 6429   0.835   0.090   0.898  1.4747  1.3258  0.5324
 2204SOL     OW 6430   4.375   0.939   4.918  0.1210 -0.1750 -0.4066
 2204SOL    HW1 6431   4.304   0.892   4.970  2.1666 -0.4923  2.3097
 2204SOL    HW2 6432   4.429   0.873   4.866 -0.6852 -0.0867 -1.3783
 2205SOL     OW 6433   3.760   0.818   0.302  0.5160  0.1103 -0.0922
 2205SOL    HW1 6434   3.764   0.741   0.366  2.4339  0.8523  0.7609
 2205SOL    HW2 6435   3.734   0.785   0.211 -1.0155 -1.1564  0.7489
 2206SOL     OW 6436   4.712   0.238   4.270  0.8057  0.2401 -0.4085
 2206SOL    HW1 6437   4.769   0.214   4.191  2.0485 -0.0965  0.5508
 2206SOL    HW2 6438   4.767   0.231   4.353 -0.3816  0.9292  0.4582
 2207SOL     OW 6439   4.953   4.556   3.239 -0.0093  0.8326 -0.4599
 2207SOL    HW1 6440   5.037   4.609   3.234  0.7610 -0.1821  1.1311
 2207SOL    HW2 6441   4.910   4.553   3.149  1.4065  1.7486 -1.1913
 2208SOL     OW 6442   3.559   2.820   4.506 -0.1761  0.1075 -0.3318
 2208SOL    HW1 6443   3.556   2.896   4.441 -0.0434 -1.0198 -1.6896
 2208SOL    HW2 6444   3.593   2.854   4.595  1.4623  1.3125 -1.3546
 2209SOL     OW 6445   3.456   0.698   4.592  0.1722  0.5842  0.0066
 2209SOL    HW1 6446   3.404   0.784   4.594 -0.3242  0.3524 -1.5326
 2209SOL    HW2 6447   3.542   0.712   4.542  1.0293  0.6463  1.4452
 2210SOL     OW 6448   2.415   1.344   4.690 -0.5869 -0.2049 -0.0025
 2210SOL    HW1 6449   2.368   1.262   4.658 -0.5759  0.2175 -1.1514
 2210SOL    HW2 6450   2.373   1.376   4.775  0.6694 -2.5044  1.5641
 2211SOL     OW 6451   0.705   2.217   4.774  0.3825  0.5972 -0.0244
 2211SOL    HW1 6452   0.705   2.317   4.773 -0.5887  0.6101  0.1187
 2211SOL    HW2 6453   0.672   2.185   4.862  1.1105  0.1437  0.0843
 2212SOL     OW 6454   2.317   4.271   0.924 -0.3997 -0.3016 -0.1376
 2212SOL    HW1 6455   2.283   4.217   1.001 -1.1900  0.2604 -0.0749
 2212SOL    HW2 6456   2.288   4.366   0.935 -0.9863 -0.3167 -1.3971
 2213SOL     OW 6457   2.544   0.301   0.506  0.0923 -0.3834 -0.1897
 2213SOL    HW1 6458   2.509   0.252   0.587  1.8416 -1.1831  0.1206
 2213SOL    HW2 6459   2.636   0.270   0.485 -0.1757  0.0961 -2.3032
 2214SOL     OW 6460   2.904   1.772   3.038  0.4676 -0.0519 -0.6142
 2214SOL    HW1 6461   2.925   1.688   2.987  2.9803  0.2032 -0.1256
 2214SOL    HW2 6462   2.966   1.780   3.116 -0.3881  1.7863 -0.0654
 2215SOL     OW 6463   1.467   3.810   3.844  0.4002 -0.4590 -0.0964
 2215SOL    HW1 6464   1.485   3.839   3.750 -1.3896 -1.0299 -0.6616
 2215SOL    HW2 6465   1.515   3.725   3.863 -0.5975 -1.2963 -1.1349
 2216SOL     OW 6466   3.188   1.774   4.797 -0.5814 -0.3852 -0.1529
 2216SOL    HW1 6467   3.097   1.763   4.837  0.0115 -1.2856  1.0466
 2216SOL    HW2 6468   3.189   1.853   4.736 -1.9217  0.1985  0.5314
 2217SOL     OW 6469   3.568   1.334   4.346 -0.2297 -0.1578  0.1329
 2217SOL    HW1 6470   3.639   1.340   4.416 -0.3367  0.1670  0.2140
 2217SOL    HW2 6471   3.481   1.365   4.384 -0.4734 -0.8182  0.1144
 2218SOL     OW 6472   0.784   1.394   3.140  0.3758 -0.4709 -0.7016
 2218SOL    HW1 6473   0.819   1.384   3.233  1.4930  1.2018 -0.8852
 2218SOL    HW2 6474   0.860   1.386   3.075  0.3175  2.1404 -1.1896
 2219SOL     OW 6475   2.527   4.413   4.662  0.0142 -0.1630  0.1550
 2219SOL    HW1 6476   2.564   4.354   4.591 -0.9831 -0.2717 -0.2771
 2219SOL    HW2 6477   2.444   4.373   4.700  0.3682  0.0364  1.1783
 2220SOL     OW 6478   3.420   0.633   3.918  0.0474 -0.3612 -0.2431
 2220SOL    HW1 6479   3.338   0.575   3.925  0.6563 -1.0990  1.6363
 2220SOL    HW2 6480   3.431   0.684   4.004  0.7831  0.8170 -1.0178
 2221SOL     OW 6481   2.272   1.114   1.186  0.0921 -0.0705 -0.5650
 2221SOL    HW1 6482   2.271   1.053   1.107 -1.4835  1.0290 -1.4644
 2221SOL    HW2 6483   2.323   1.072   1.260 -1.2300 -2.6593 -1.0042
 2222SOL     OW 6484   3.105   2.125   1.024  0.0317  0.2476  0.3061
 2222SOL    HW1 6485   3.155   2.063   0.964 -1.9988 -1.3092  0.0991
 2222SOL    HW2 6486   3.040   2.072   1.079 -0.3272  1.9917  1.6349
 2223SOL     OW 6487   3.174   4.329   4.195  0.0584  0.0340 -0.2104
 2223SOL    HW1 6488   3.145   4.387   4.119  1.2007  1.9712  0.7458
 2223SOL    HW2 6489   3.094   4.301   4.248 -0.5944  0.0029 -1.1965
 2224SOL     OW 6490   2.164   0.471   1.153 -0.2006  0.2296 -0.1951
 2224SOL    HW1 6491   2.114   0.387   1.175 -0.0702  0.4301  0.9220
 2224SOL    HW2 6492   2.099   0.545   1.134 -0.3532  0.4223  0.9972
 2225SOL     OW 6493   0.639   1.924   4.350  0.1351 -0.3718  0.3870
 2225SOL    HW1 6494   0.593   1.966   4.428  0.2573  1.5285 -0.4910
 2225SOL    HW2 6495   0.729   1.966   4.338  0.2151 -0.8019 -0.6200
 2226SOL     OW 6496   2.791   2.035   4.457 -0.0665  0.6908 -0.4939
 2226SOL    HW1 6497   2.750   1.994   4.538  0.6554  0.1287 -0.4089
 2226SOL    HW2 6498   2.885   2.063   4.477 -0.0547  1.0266 -0.9884
 2227SOL     OW 6499   2.053   1.025   4.615  0.4119  0.0436  0.5096
 2227SOL    HW1 6500   2.077   0.951   4.677  0.8584 -0.0822  0.1845
 2227SOL    HW2 6501   2.136   1.064   4.575  0.0607 -0.8022 -1.0935
 2228SOL     OW 6502   4.237   1.159   4.793 -0.8802 -0.5855  0.0634
 2228SOL    HW1 6503   4.307   1.099   4.832 -0.1265  1.0326  1.3791
 2228SOL    HW2 6504   4.268   1.192   4.703  0.6104  0.8821  1.0402
 2229SOL     OW 6505   4.771   4.584   4.408  0.1658 -0.0296 -0.4234
 2229SOL    HW1 6506   4.699   4.598   4.476  1.2074  1.1952  0.4817
 2229SOL    HW2 6507   4.759   4.495   4.364 -2.9239  0.8472 -1.5899
 2230SOL     OW 6508   4.310   1.289   0.156 -0.7289 -0.0027  0.0016
 2230SOL    HW1 6509   4.258   1.368   0.190 -0.0716  0.1841  0.5860
 2230SOL    HW2 6510   4.361   1.316   0.074 -1.4347 -0.1496 -0.4940
 2231SOL     OW 6511   1.597   3.884   4.108 -0.2713  0.1389  0.3288
 2231SOL    HW1 6512   1.588   3.975   4.149 -0.6834  0.0381  0.4653
 2231SOL    HW2 6513   1.559   3.815   4.171  0.6114 -0.1991  0.5091
 2232SOL     OW 6514   2.711   0.337   4.856 -0.0790 -0.5491 -0.1877
 2232SOL    HW1 6515   2.701   0.248   4.901  0.0195 -1.1083 -1.2479
 2232SOL    HW2 6516   2.646   0.344   4.780  0.5615 -0.1002 -0.7123
 2233SOL     OW 6517   3.981   0.123   0.337  0.3568  0.2141  0.0247
 2233SOL    HW1 6518   4.049   0.103   0.267 -1.2535  0.4780 -1.6967
 2233SOL    HW2 6519   4.025   0.171   0.413  1.7684  2.1382 -1.8732
 2234SOL     OW 6520   0.126   0.094   2.653 -0.0170 -0.2280 -0.6959
 2234SOL    HW1 6521   0.179   0.155   2.712  0.9267 -0.7260 -1.0022
 2234SOL    HW2 6522   0.053   0.052   2.706 -1.1738  1.7045 -0.6508
 2235SOL     OW 6523   3.867   0.474   0.108  0.2322 -0.3196 -0.0323
 2235SOL    HW1 6524   3.805   0.552   0.119  1.5576  0.8238 -0.3671
 2235SOL    HW2 6525   3.819   0.390   0.132 -1.1777  0.6136  0.5710
 2236SOL     OW 6526   1.403   0.986   4.313  0.4191 -0.0087  0.3269
 2236SOL    HW1 6527   1.378   0.984   4.410  2.3852  0.3335  0.8960
 2236SOL    HW2 6528   1.373   0.901   4.269 -1.7230  0.4191  0.8572
 2237SOL     OW 6529   3.228   0.235   1.527 -0.2207  0.5349 -0.1114
 2237SOL    HW1 6530   3.209   0.330   1.503 -0.5318  1.5417  3.5478
 2237SOL    HW2 6531   3.200   0.217   1.621 -0.5881 -3.3716 -0.7620
 2238SOL     OW 6532   2.305   4.195   0.320  0.0497  0.3380  0.1432
 2238SOL    HW1 6533   2.313   4.223   0.416  4.5409 -1.4018  0.5066
 2238SOL    HW2 6534   2.367   4.249   0.264  0.1384 -1.0394 -1.1485
 2239SOL     OW 6535   1.932   2.938   3.611  0.1278  0.0299 -0.2863
 2239SOL    HW1 6536   1.918   2.930   3.709  0.2305 -0.7658 -0.3255
 2239SOL    HW2 6537   1.844   2.939   3.564  0.0585  1.0435 -0.1533
 2240SOL     OW 6538   0.670   1.143   0.129 -0.2336  0.0132 -0.6990
 2240SOL    HW1 6539   0.646   1.232   0.167 -0.6416  0.6898 -2.4363
 2240SOL    HW2 6540   0.705   1.155   0.036 -2.1806 -1.7690 -1.7425
 2241SOL     OW 6541   3.131   0.393   4.823  0.3865  0.0232  0.9070
 2241SOL    HW1 6542   3.198   0.413   4.895  0.6764  1.3914  0.2819
 2241SOL    HW2 6543   3.125   0.470   4.760  0.7615 -1.4614 -1.0509
 2242SOL     OW 6544   0.424   0.225   5.018 -0.0513 -0.0739 -0.2171
 2242SOL    HW1 6545   0.432   0.269   5.107 -0.5380 -0.7128  0.1485
 2242SOL    HW2 6546   0.505   0.245   4.963 -0.1877  1.1473 -0.0071
 2243SOL     OW 6547   3.367   0.760   4.967  0.3936  0.4193 -0.4250
 2243SOL    HW1 6548   3.420   0.843   4.948  0.1394  0.4608 -0.9827
 2243SOL    HW2 6549   3.272   0.774   4.940  0.2624  0.0878 -0.1370
 2244SOL     OW 6550   2.399   0.864   3.768 -0.4501  0.0068 -0.5159
 2244SOL    HW1 6551   2.386   0.828   3.860  1.3323 -0.3937 -0.3955
 2244SOL    HW2 6552   2.391   0.964   3.771 -0.5518 -0.0118  0.0282
 2245SOL     OW 6553   1.277   4.401   3.953 -0.0229  0.2740 -0.3747
 2245SOL    HW1 6554   1.359   4.423   4.005  0.4255 -1.7286 -0.1392
 2245SOL    HW2 6555   1.302   4.347   3.873 -1.0603  0.1681 -0.6478
 2246SOL     OW 6556   0.841   0.461   4.311 -0.1621  0.5711  0.4262
 2246SOL    HW1 6557   0.829   0.538   4.374  2.9432  0.1384  1.7504
 2246SOL    HW2 6558   0.752   0.433   4.276 -1.5812  3.7169  1.0941
 2247SOL     OW 6559   2.340   0.193   4.293 -0.4514  0.2933 -0.1395
 2247SOL    HW1 6560   2.282   0.141   4.230 -0.3135  1.5812 -1.3772
 2247SOL    HW2 6561   2.433   0.195   4.257 -0.7081  2.4181 -0.7922
 2248SOL     OW 6562   4.151   0.739   4.003 -0.1750 -0.7266  0.2884
 2248SOL    HW1 6563   4.150   0.830   4.046 -2.6062 -0.6365  0.1750
 2248SOL    HW2 6564   4.180   0.748   3.908 -1.4635  0.1268 -0.0435
 2249SOL     OW 6565   3.864   1.045   4.945 -0.0752  0.1091  0.3867
 2249SOL    HW1 6566   3.863   0.990   4.861 -0.4125  1.3116 -0.4184
 2249SOL    HW2 6567   3.922   1.001   5.013  0.0537 -0.9840 -0.4064
 2250SOL     OW 6568   3.169   3.679   0.373  0.5821 -0.6229 -0.3058
 2250SOL    HW1 6569   3.260   3.694   0.335  0.3590  1.5840 -0.1496
 2250SOL    HW2 6570   3.134   3.766   0.408 -1.6298 -1.3982 -0.4545
 2251SOL     OW 6571   2.814   1.926   3.950  0.3271 -0.3634 -0.0473
 2251SOL    HW1 6572   2.797   1.923   3.852  0.1074 -0.0216 -0.0215
 2251SOL    HW2 6573   2.731   1.899   4.000  0.5283 -0.8301  0.0412
 2252SOL     OW 6574   3.283   1.745   3.320  0.4523  0.8835  0.2342
 2252SOL    HW1 6575   3.311   1.731   3.415 -0.0817 -0.2321  0.2472
 2252SOL    HW2 6576   3.359   1.721   3.259  1.2834  2.9607  0.3907
 2253SOL     OW 6577   4.011   4.323   3.432 -0.1932 -0.4237 -0.4564
 2253SOL    HW1 6578   4.109   4.306   3.440  0.0168  0.4751 -1.0194
 2253SOL    HW2 6579   3.981   4.300   3.339 -0.4564 -0.3862 -0.3820
 2254SOL     OW 6580   0.115   0.663   4.376 -0.9900 -0.1888  0.0351
 2254SOL    HW1 6581   0.126   0.754   4.338 -1.5643  0.4055  1.2252
 2254SOL    HW2 6582   0.053   0.610   4.318 -1.0611  0.3532 -0.3920
 2255SOL     OW 6583   1.722   2.209   3.230  0.3623  0.6676  0.5057
 2255SOL    HW1 6584   1.799   2.152   3.201  1.4594  2.2749  0.1413
 2255SOL    HW2 6585   1.655   2.214   3.157  0.0206 -0.5266  0.7224
 2256SOL     OW 6586   1.863   0.978   0.226 -0.0193  0.2885 -0.4234
 2256SOL    HW1 6587   1.870   1.062   0.172  1.5735  0.8680  0.5986
 2256SOL    HW2 6588   1.810   0.910   0.175  0.1270  1.3241 -2.0382
 2257SOL     OW 6589   0.870   1.852   3.309  0.2834 -0.2496  0.7112
 2257SOL    HW1 6590   0.907   1.887   3.395  1.8457  1.4372 -0.5667
 2257SOL    HW2 6591   0.932   1.782   3.272 -0.1904 -0.7051  0.7712
 2258SOL     OW 6592   2.667   2.213   0.250  0.2506  0.0572  0.1301
 2258SOL    HW1 6593   2.668   2.121   0.209  1.1497  0.1815 -0.1695
 2258SOL    HW2 6594   2.576   2.234   0.284  0.1950 -1.2480  0.8704
 2259SOL     OW 6595   1.395   1.250   0.403 -0.0780 -0.1504  0.6009
 2259SOL    HW1 6596   1.343   1.187   0.346  0.0664  1.3792 -1.3625
 2259SOL    HW2 6597   1.493   1.231   0.394  0.0609  1.0750 -1.0601
 2260SOL     OW 6598   3.022   0.367   0.223  0.0480  0.0063  0.3026
 2260SOL    HW1 6599   2.988   0.348   0.131 -1.2276 -1.0753  0.9437
 2260SOL    HW2 6600   3.087   0.442   0.221 -0.6955  0.6404 -1.3389
 2261SOL     OW 6601   2.992   0.368   1.242  0.0786  0.2500  0.1303
 2261SOL    HW1 6602   3.027   0.411   1.325  1.1954 -0.3226 -0.0209
 2261SOL    HW2 6603   3.069   0.346   1.181 -0.6221 -0.3295 -0.5636
 2262SOL     OW 6604   3.902   2.891   4.593  0.6251 -0.8588 -0.7453
 2262SOL    HW1 6605   3.903   2.988   4.568  1.4421 -0.7384 -0.2733
 2262SOL    HW2 6606   3.895   2.835   4.510 -0.3212 -0.4015 -0.9942
 2263SOL     OW 6607   3.084   0.903   0.922 -0.1702  0.1010  0.2607
 2263SOL    HW1 6608   3.170   0.863   0.953  0.0530 -0.3386 -0.8556
 2263SOL    HW2 6609   3.020   0.909   0.998  1.2794  1.6869  1.4266
 2264SOL     OW 6610   3.599   1.484   4.136  0.7082  0.6267  0.3090
 2264SOL    HW1 6611   3.688   1.458   4.098  1.4203  2.5294  0.5089
 2264SOL    HW2 6612   3.577   1.424   4.213  1.3303 -0.5117 -0.3743
 2265SOL     OW 6613   4.017   0.332   4.047 -0.1834  0.5490 -0.5246
 2265SOL    HW1 6614   3.920   0.318   4.028 -0.3768  0.8481  0.1900
 2265SOL    HW2 6615   4.070   0.256   4.010 -0.7255  0.2199 -0.6336
 2266SOL     OW 6616   1.933   2.092   4.163  0.1398 -0.0576 -0.3333
 2266SOL    HW1 6617   1.925   1.996   4.137 -0.1400 -0.0006 -0.4594
 2266SOL    HW2 6618   1.986   2.099   4.248  0.6611 -0.2744 -0.6374
 2267SOL     OW 6619   2.465   0.746   3.518 -0.6292 -0.0513  0.4658
 2267SOL    HW1 6620   2.552   0.786   3.489 -0.9263 -0.9397 -1.8401
 2267SOL    HW2 6621   2.445   0.775   3.612  1.3164  1.5241  0.4645
 2268SOL     OW 6622   2.606   1.205   3.804  0.1698  0.3037 -0.3761
 2268SOL    HW1 6623   2.692   1.222   3.756  0.6015  1.1242  0.6673
 2268SOL    HW2 6624   2.605   1.254   3.891 -0.8901 -0.6013  0.1541
 2269SOL     OW 6625   3.862   0.619   0.761  0.6484 -0.3242  0.2939
 2269SOL    HW1 6626   3.958   0.648   0.762  0.5719 -0.0692  0.3519
 2269SOL    HW2 6627   3.835   0.591   0.853  0.8954 -1.1698  0.1221
 2270SOL     OW 6628   4.017   0.904   3.708  0.4132 -0.0154 -0.3678
 2270SOL    HW1 6629   4.019   1.002   3.685 -2.9875 -0.1325 -1.6663
 2270SOL    HW2 6630   3.964   0.891   3.792  0.2253 -0.7960 -0.6047
 2271SOL     OW 6631   1.728   1.546   0.391  0.2121  0.4051  0.2637
 2271SOL    HW1 6632   1.635   1.570   0.365  0.0288  1.0301  1.4237
 2271SOL    HW2 6633   1.768   1.485   0.322 -2.2389 -2.7712  1.4026
 2272SOL     OW 6634   2.276   4.596   3.353 -0.4964 -0.2374  0.2983
 2272SOL    HW1 6635   2.250   4.559   3.264  0.8550  0.2134 -0.3078
 2272SOL    HW2 6636   2.195   4.632   3.399 -1.1125  0.1725 -1.0544
 2273SOL     OW 6637   0.953   1.514   0.997  0.1353 -0.4270 -0.0850
 2273SOL    HW1 6638   0.958   1.458   0.914  0.6492  0.4402 -0.6534
 2273SOL    HW2 6639   0.901   1.597   0.978  0.5011 -0.0851  0.3746
 2274SOL     OW 6640   0.954   1.520   4.923 -0.2482  0.3776 -0.6333
 2274SOL    HW1 6641   0.871   1.568   4.892 -0.7962 -0.4248 -0.4381
 2274SOL    HW2 6642   1.015   1.506   4.845  0.5531  2.5635 -0.4717
 2275SOL     OW 6643   1.631   2.476   4.445 -0.0229 -0.3995 -0.4070
 2275SOL    HW1 6644   1.727   2.451   4.462 -0.2661 -1.4981 -0.5987
 2275SOL    HW2 6645   1.618   2.491   4.347 -0.3542 -1.6921 -0.5842
 2276SOL     OW 6646   2.595   1.182   1.233  0.4654  0.2999  0.0010
 2276SOL    HW1 6647   2.613   1.193   1.330  0.2258 -3.1998  0.5653
 2276SOL    HW2 6648   2.522   1.245   1.205 -1.8451 -0.8748  2.8987
 2277SOL     OW 6649   2.013   0.513   4.761  0.1057  0.0150  0.6008
 2277SOL    HW1 6650   2.024   0.424   4.717  0.5345  1.2194 -1.8926
 2277SOL    HW2 6651   1.924   0.551   4.736  1.1309  1.5532 -0.8826
 2278SOL     OW 6652   2.022   2.070   1.428  0.5757 -0.0085  0.3060
 2278SOL    HW1 6653   2.106   2.057   1.480  0.4627 -0.8305  0.2967
 2278SOL    HW2 6654   1.957   1.998   1.451  0.1343  0.2187 -0.1993
 2279SOL     OW 6655   3.078   3.647   1.218 -0.0920  0.0124 -0.3379
 2279SOL    HW1 6656   3.080   3.743   1.246  1.5737 -0.6823  2.3035
 2279SOL    HW2 6657   3.119   3.638   1.127 -1.2357  1.8847 -1.0959
 2280SOL     OW 6658   2.114   2.460   4.338 -0.4350 -0.2947 -0.0327
 2280SOL    HW1 6659   2.182   2.504   4.397 -1.1852 -0.3209  0.8742
 2280SOL    HW2 6660   2.048   2.410   4.394 -0.8100 -0.8397 -0.9366
 2281SOL     OW 6661   1.850   2.312   0.336 -0.6508 -0.2194  0.1382
 2281SOL    HW1 6662   1.797   2.227   0.328 -2.3740  0.6595  1.3696
 2281SOL    HW2 6663   1.819   2.362   0.417  1.3280  0.9245  0.2474
 2282SOL     OW 6664   3.057   3.692   2.484 -0.0023  0.4420  0.1578
 2282SOL    HW1 6665   3.133   3.661   2.541 -0.4640 -0.3268  0.3650
 2282SOL    HW2 6666   2.973   3.648   2.514 -0.3175  0.3059 -0.8874
 2283SOL     OW 6667   2.233   1.268   2.178  0.1844 -0.1445 -0.1029
 2283SOL    HW1 6668   2.296   1.244   2.105  0.7976  0.0207  0.3688
 2283SOL    HW2 6669   2.281   1.319   2.249 -0.6452  0.6673 -0.1019
 2284SOL     OW 6670   4.306   3.234   0.832 -0.1347 -0.6519  0.1908
 2284SOL    HW1 6671   4.401   3.221   0.802 -0.5857 -0.6750 -1.2853
 2284SOL    HW2 6672   4.306   3.262   0.928  1.4811  1.4399 -0.3296
 2285SOL     OW 6673   2.126   1.498   0.610  0.4145 -0.2731  0.4142
 2285SOL    HW1 6674   2.099   1.435   0.684  0.9319 -1.5006 -0.4093
 2285SOL    HW2 6675   2.170   1.579   0.649 -0.0617 -0.5228  1.4944
 2286SOL     OW 6676   0.067   3.151   0.575  0.1071 -0.4409 -0.4055
 2286SOL    HW1 6677  -0.018   3.168   0.526  1.2430 -0.1758 -2.4077
 2286SOL    HW2 6678   0.077   3.054   0.593 -0.7812 -0.4308  0.2321
 2287SOL     OW 6679   4.778   2.653   0.857  0.0208  0.4872  0.0287
 2287SOL    HW1 6680   4.821   2.744   0.855  0.1385  0.4253 -0.1733
 2287SOL    HW2 6681   4.717   2.643   0.779 -0.8102  0.7905  0.6146
 2288SOL     OW 6682   2.696   4.014   2.037  0.2505  0.2024  0.2759
 2288SOL    HW1 6683   2.793   3.995   2.049  0.3601  0.9263  0.5320
 2288SOL    HW2 6684   2.675   4.020   1.939  0.1802 -1.3493  0.1569
 2289SOL     OW 6685   0.852   2.173   3.856 -0.2915  0.0995  0.6092
 2289SOL    HW1 6686   0.830   2.204   3.764 -0.2193 -0.1208  0.5182
 2289SOL    HW2 6687   0.945   2.202   3.880 -1.0072  1.9197  1.3748
 2290SOL     OW 6688   2.720   1.781   1.443  0.4587 -0.6991  0.2697
 2290SOL    HW1 6689   2.663   1.703   1.469  0.3668 -0.1048  1.9363
 2290SOL    HW2 6690   2.805   1.748   1.401  0.8379 -1.7625  1.7827
 2291SOL     OW 6691   2.166   4.888   1.690 -0.4861  0.2819 -0.1244
 2291SOL    HW1 6692   2.115   4.896   1.605  1.8149 -1.5477 -1.8184
 2291SOL    HW2 6693   2.156   4.794   1.725  2.1885 -0.3933 -0.9598
 2292SOL     OW 6694   2.488   2.494   5.018 -0.3840 -0.3777 -0.1521
 2292SOL    HW1 6695   2.388   2.495   5.021 -0.3909 -0.5623 -0.3616
 2292SOL    HW2 6696   2.520   2.551   4.942 -0.3032  0.5544  0.5593
 2293SOL     OW 6697   0.419   1.141   2.115  0.4866 -0.1995  0.3584
 2293SOL    HW1 6698   0.448   1.050   2.143  0.1991 -0.7326 -1.0280
 2293SOL    HW2 6699   0.500   1.200   2.106  0.5813  0.0836  2.4736
 2294SOL     OW 6700   3.601   2.475   0.736 -0.4908 -0.4358  0.5166
 2294SOL    HW1 6701   3.504   2.469   0.712 -0.3396 -0.4926 -0.0985
 2294SOL    HW2 6702   3.646   2.543   0.677  0.0608 -1.1700  0.0802
 2295SOL     OW 6703   2.584   3.743   0.572 -0.4445 -0.1425 -0.0488
 2295SOL    HW1 6704   2.489   3.750   0.542 -0.8036  1.1231  1.2519
 2295SOL    HW2 6705   2.606   3.820   0.631  0.6667 -1.6472  1.6161
 2296SOL     OW 6706   1.005   1.743   2.914  0.0120 -0.0951  0.1715
 2296SOL    HW1 6707   1.087   1.801   2.912  0.3483 -0.5767 -0.3333
 2296SOL    HW2 6708   0.998   1.691   2.829 -1.5343  0.8946 -0.3404
 2297SOL     OW 6709   2.567   2.306   0.870  0.1592  0.1405  0.5222
 2297SOL    HW1 6710   2.541   2.333   0.777  0.2150  1.8647  0.9730
 2297SOL    HW2 6711   2.645   2.361   0.900 -0.2197  0.0111  1.7984
 2298SOL     OW 6712   2.963   2.258   4.949 -0.2044 -0.3472  0.0567
 2298SOL    HW1 6713   2.919   2.283   5.034  0.3838 -1.9700  0.8815
 2298SOL    HW2 6714   2.933   2.166   4.921  2.7597 -1.6745  0.8358
 2299SOL     OW 6715   2.140   1.606   0.204 -0.0008 -0.0383  0.4123
 2299SOL    HW1 6716   2.093   1.666   0.138 -2.3687 -1.9923  0.1678
 2299SOL    HW2 6717   2.087   1.604   0.289  1.1982 -0.1773  1.1725
 2300SOL     OW 6718   1.265   2.241   1.464 -0.1460 -0.0341  0.0991
 2300SOL    HW1 6719   1.250   2.297   1.546  0.2059  0.8525 -0.4208
 2300SOL    HW2 6720   1.177   2.204   1.433 -0.6210  1.3164 -0.2816
 2301SOL     OW 6721   3.065   3.564   0.734  0.1919 -0.2773  0.4033
 2301SOL    HW1 6722   3.158   3.540   0.760 -0.0110 -1.4816  0.0735
 2301SOL    HW2 6723   3.043   3.521   0.647 -0.8334 -0.3658  0.6981
 2302SOL     OW 6724   0.942   2.337   4.574  0.0702 -0.0201 -0.4626
 2302SOL    HW1 6725   0.970   2.394   4.651  0.8482 -0.6426 -0.2786
 2302SOL    HW2 6726   0.842   2.343   4.563 -0.0638  0.0054  0.6387
 2303SOL     OW 6727   1.900   2.324   1.734 -0.2038 -0.0052 -0.4176
 2303SOL    HW1 6728   1.914   2.404   1.792  0.0619  0.0345 -0.5384
 2303SOL    HW2 6729   1.911   2.241   1.788 -1.0366  0.0422 -0.1604
 2304SOL     OW 6730   2.488   2.756   4.221  0.7213  0.3058 -0.5882
 2304SOL    HW1 6731   2.505   2.680   4.158  0.4735 -1.5696  1.4861
 2304SOL    HW2 6732   2.391   2.779   4.219  0.7211  0.2887 -0.8987
 2305SOL     OW 6733   1.928   2.424   0.647 -0.4285  0.1541  0.4777
 2305SOL    HW1 6734   2.011   2.441   0.700 -1.1060  0.4737  1.4563
 2305SOL    HW2 6735   1.908   2.326   0.646  0.5606 -0.0750 -0.7254
 2306SOL     OW 6736   2.505   2.135   2.122  0.5711 -0.1832  0.3869
 2306SOL    HW1 6737   2.598   2.154   2.153  0.3373  1.9628 -0.0577
 2306SOL    HW2 6738   2.443   2.205   2.157 -0.0611  1.1553 -2.9853
 2307SOL     OW 6739   3.627   1.659   0.316  0.0874  0.4652  0.0324
 2307SOL    HW1 6740   3.549   1.644   0.377  1.1066  0.5045  1.3808
 2307SOL    HW2 6741   3.711   1.666   0.370  0.8924  1.5386 -1.3050
 2308SOL     OW 6742   4.777   4.401   1.483 -0.7901  0.1074  1.1707
 2308SOL    HW1 6743   4.858   4.441   1.439 -1.2086 -0.6533 -0.3342
 2308SOL    HW2 6744   4.806   4.335   1.552 -0.0900 -0.6418  0.1955
 2309SOL     OW 6745   5.024   3.635   2.183  0.5435 -0.3577 -0.7674
 2309SOL    HW1 6746   5.002   3.711   2.122  0.8624  1.0068  0.7415
 2309SOL    HW2 6747   5.119   3.608   2.172  1.0521  0.9432  0.1704
 2310SOL     OW 6748   2.577   1.552   1.480  0.3202  0.2352  0.2380
 2310SOL    HW1 6749   2.480   1.528   1.484 -0.2445  2.3324  0.2879
 2310SOL    HW2 6750   2.623   1.492   1.414 -1.1230 -0.4038 -0.2385
 2311SOL     OW 6751   4.408   0.147   0.873 -0.1880 -0.1643 -0.2066
 2311SOL    HW1 6752   4.387   0.111   0.964  0.4068  1.5372  0.6539
 2311SOL    HW2 6753   4.330   0.134   0.813 -2.1103  1.9892  1.6193
 2312SOL     OW 6754   2.512   3.557   1.470 -0.4810 -0.1806  0.9063
 2312SOL    HW1 6755   2.513   3.653   1.442 -0.6140 -0.0306  1.4120
 2312SOL    HW2 6756   2.511   3.499   1.389  1.2198  0.2120  0.5569
 2313SOL     OW 6757   2.487   3.825   1.408 -0.5575  0.3155  0.0216
 2313SOL    HW1 6758   2.582   3.855   1.419 -0.6629 -0.3058  3.5810
 2313SOL    HW2 6759   2.431   3.864   1.481 -2.4271 -1.7749 -0.1984
 2314SOL     OW 6760   2.497   4.630   1.369  0.2998  0.3702  0.2789
 2314SOL    HW1 6761   2.519   4.693   1.444 -2.3315 -0.8901  2.2566
 2314SOL    HW2 6762   2.537   4.540   1.389 -2.6276 -0.7333  1.7165
 2315SOL     OW 6763   2.693   2.201   1.874  0.2804 -0.0280  0.1444
 2315SOL    HW1 6764   2.778   2.201   1.821  0.5144  0.9936  0.4849
 2315SOL    HW2 6765   2.657   2.108   1.880  1.2987 -0.4543 -0.1268
 2316SOL     OW 6766   2.281   3.418   3.233 -0.1579  0.1737  0.3253
 2316SOL    HW1 6767   2.220   3.355   3.184  0.4402  0.1088 -0.3554
 2316SOL    HW2 6768   2.310   3.490   3.171  0.2025  0.3879  0.7412
 2317SOL     OW 6769   0.445   1.704   4.878 -0.2518 -0.1654  0.5695
 2317SOL    HW1 6770   0.497   1.731   4.797  1.2860 -0.3621  1.4603
 2317SOL    HW2 6771   0.358   1.754   4.879  0.2896  0.8719 -0.4900
 2318SOL     OW 6772   1.010   3.518   1.086  0.0984  0.0695  0.2704
 2318SOL    HW1 6773   1.011   3.443   1.020  0.6527 -1.0600  1.4993
 2318SOL    HW2 6774   1.064   3.492   1.166 -0.0632  1.6275  0.9134
 2319SOL     OW 6775   2.871   1.730   0.852  0.2048 -0.2097  0.4500
 2319SOL    HW1 6776   2.849   1.749   0.756 -2.0626 -0.9811  0.7549
 2319SOL    HW2 6777   2.961   1.689   0.858  1.1020  1.3737 -1.1621
 2320SOL     OW 6778   4.190   2.684   1.516 -0.0137 -0.5880 -0.0952
 2320SOL    HW1 6779   4.286   2.691   1.544 -0.1191 -2.1619  0.7973
 2320SOL    HW2 6780   4.185   2.667   1.418  0.4629  2.5299 -0.7410
 2321SOL     OW 6781   2.635   3.438   1.053 -0.6848 -0.1449  0.2292
 2321SOL    HW1 6782   2.655   3.534   1.031  0.5330 -0.4322 -0.0073
 2321SOL    HW2 6783   2.578   3.399   0.981  0.4166 -0.1151 -0.6866
 2322SOL     OW 6784   4.835   0.816   4.417 -0.2368  0.0375  0.7521
 2322SOL    HW1 6785   4.903   0.797   4.489 -0.9077 -0.3134  1.3035
 2322SOL    HW2 6786   4.858   0.903   4.372  1.3765 -0.7590 -0.0345
 2323SOL     OW 6787   3.709   2.660   0.549  0.2960 -0.4970 -0.2812
 2323SOL    HW1 6788   3.750   2.749   0.567 -1.7755  1.0093 -2.5435
 2323SOL    HW2 6789   3.782   2.595   0.527  1.7149  1.3325 -1.2922
 2324SOL     OW 6790   1.263   4.291   1.409 -0.2989 -0.1382  0.0910
 2324SOL    HW1 6791   1.233   4.231   1.334  0.8101  0.0235 -0.4961
 2324SOL    HW2 6792   1.362   4.286   1.419 -0.4133 -0.1316  1.5464
 2325SOL     OW 6793   2.552   0.864   1.810  0.1121  0.6036  0.0740
 2325SOL    HW1 6794   2.512   0.811   1.735 -0.0345  2.4470 -1.2199
 2325SOL    HW2 6795   2.486   0.874   1.884 -1.0038  1.5460 -0.9986
 2326SOL     OW 6796   3.886   1.735   0.448  0.1138  0.3837 -0.1586
 2326SOL    HW1 6797   3.927   1.792   0.520  0.4150 -0.0893  0.0475
 2326SOL    HW2 6798   3.931   1.755   0.361 -0.3432  1.0563 -0.2519
 2327SOL     OW 6799   1.720   1.161   4.566  0.8307  0.5184  0.0306
 2327SOL    HW1 6800   1.717   1.088   4.498  1.3179 -0.7613  1.3262
 2327SOL    HW2 6801   1.745   1.122   4.655 -1.5280  1.8427  1.3559
 2328SOL     OW 6802   4.238   4.179   1.679 -0.0399 -0.2769  0.0961
 2328SOL    HW1 6803   4.200   4.111   1.741 -1.2964 -0.1450 -0.5089
 2328SOL    HW2 6804   4.180   4.260   1.678  0.1084 -0.1745 -1.0503
 2329SOL     OW 6805   2.137   2.484   0.802 -0.0033 -0.1052 -0.4618
 2329SOL    HW1 6806   2.124   2.527   0.891 -1.7887 -1.8785  0.2167
 2329SOL    HW2 6807   2.203   2.536   0.749  0.3091  1.6004  1.4821
 2330SOL     OW 6808   2.946   0.647   1.684  0.1628  0.2567 -0.2998
 2330SOL    HW1 6809   2.990   0.559   1.697 -2.6554 -1.8053 -3.2240
 2330SOL    HW2 6810   2.887   0.667   1.762  1.3871 -0.0311  0.7253
 2331SOL     OW 6811   1.498   0.211   2.443 -0.4234 -0.6087 -0.6454
 2331SOL    HW1 6812   1.432   0.250   2.507 -1.6004 -0.7101 -1.7591
 2331SOL    HW2 6813   1.583   0.265   2.446 -0.8960  0.1163  0.1136
 2332SOL     OW 6814   4.990   4.468   1.322  0.1704  0.1637  0.2119
 2332SOL    HW1 6815   5.003   4.377   1.283  0.5602  0.0554  0.5847
 2332SOL    HW2 6816   5.068   4.526   1.299  0.1185  0.2790  0.3227
 2333SOL     OW 6817   0.322   3.895   0.031  0.3136  0.6790 -0.0299
 2333SOL    HW1 6818   0.408   3.894  -0.021  0.3943  1.3352  0.0776
 2333SOL    HW2 6819   0.338   3.862   0.124  0.3568  0.3879 -0.1384
 2334SOL     OW 6820   0.190   3.343   1.387  0.1784  0.4157  0.3827
 2334SOL    HW1 6821   0.093   3.366   1.390  0.0420 -0.1774  0.7782
 2334SOL    HW2 6822   0.201   3.245   1.403  0.9431  0.7237  1.8502
 2335SOL     OW 6823   2.909   4.571   2.110 -0.2483 -0.8044 -0.4802
 2335SOL    HW1 6824   2.896   4.473   2.092  1.0354 -0.9225 -0.8240
 2335SOL    HW2 6825   3.002   4.598   2.085 -0.2474  0.2824  0.5965
 2336SOL     OW 6826   1.703   2.915   1.689  0.1599  0.6717  0.4696
 2336SOL    HW1 6827   1.798   2.927   1.716 -0.0677 -0.0169  1.6814
 2336SOL    HW2 6828   1.677   2.986   1.624  1.7185  0.3758 -0.5100
 2337SOL     OW 6829   4.038   1.283   4.964 -0.3522  0.2351  0.0533
 2337SOL    HW1 6830   3.976   1.205   4.956 -0.1358  0.1543 -0.8776
 2337SOL    HW2 6831   4.121   1.266   4.911  1.2366 -0.3546  2.5617
 2338SOL     OW 6832   2.747   3.132   2.263 -0.2188  0.6985  0.0902
 2338SOL    HW1 6833   2.684   3.185   2.206 -1.1833  0.5628  0.9991
 2338SOL    HW2 6834   2.840   3.167   2.252 -0.5725  1.4294 -0.6583
 2339SOL     OW 6835   2.827   1.474   3.204  0.0812  0.0328  0.1512
 2339SOL    HW1 6836   2.920   1.506   3.191  0.3653 -1.1990 -1.0756
 2339SOL    HW2 6837   2.792   1.434   3.119 -0.5359 -2.0566  1.2890
 2340SOL     OW 6838   4.977   3.590   1.197  0.0557 -0.4957  0.2756
 2340SOL    HW1 6839   5.013   3.667   1.146 -0.6211 -0.2835  0.0987
 2340SOL    HW2 6840   4.958   3.514   1.135 -0.8269 -0.2152  0.1803
 2341SOL     OW 6841   3.325   1.784   5.024  0.6191  0.3290  0.1485
 2341SOL    HW1 6842   3.286   1.793   4.933 -0.8782 -0.0632  0.7224
 2341SOL    HW2 6843   3.413   1.832   5.027  0.0006  1.6315 -1.0834
 2342SOL     OW 6844   2.370   3.417   2.161  0.4062 -0.0795  0.1097
 2342SOL    HW1 6845   2.321   3.413   2.248 -1.3243  1.9887 -0.6644
 2342SOL    HW2 6846   2.372   3.326   2.120  0.0431 -0.8285  1.6646
 2343SOL     OW 6847   2.613   2.160   1.082  0.1005 -0.7115 -0.2051
 2343SOL    HW1 6848   2.599   2.190   0.988  1.1643  0.4116 -0.0333
 2343SOL    HW2 6849   2.527   2.125   1.119 -0.4340 -0.7450 -1.4414
 2344SOL     OW 6850   1.904   0.805   0.693  0.0592 -0.0319  0.1333
 2344SOL    HW1 6851   1.856   0.746   0.628 -2.1341  3.0896 -1.3692
 2344SOL    HW2 6852   1.836   0.856   0.747  1.5630  3.6353 -1.1400
 2345SOL     OW 6853   2.589   3.162   2.517 -0.1271  0.2690  0.2172
 2345SOL    HW1 6854   2.629   3.156   2.425  1.3751 -0.3116  0.8690
 2345SOL    HW2 6855   2.531   3.082   2.533  2.0432 -1.2930  0.8149
 2346SOL     OW 6856   1.734   1.019   4.826  0.2626  0.2368  0.5704
 2346SOL    HW1 6857   1.658   1.067   4.871  1.3573  0.2176  2.5498
 2346SOL    HW2 6858   1.701   0.932   4.790 -0.7284  0.3380  1.1851
 2347SOL     OW 6859   2.096   3.316   1.764 -0.6879 -0.3330 -0.4153
 2347SOL    HW1 6860   2.040   3.273   1.834  0.3584 -0.7624  0.1709
 2347SOL    HW2 6861   2.158   3.249   1.724 -0.2427  0.2338 -0.7045
 2348SOL     OW 6862   0.949   2.633   1.850 -0.5311  0.2424 -0.5039
 2348SOL    HW1 6863   0.923   2.729   1.841  2.4797  1.2165  0.1316
 2348SOL    HW2 6864   0.962   2.593   1.759 -1.1877  0.6110 -0.7656
 2349SOL     OW 6865   3.024   3.162   0.784 -0.2314  0.6499  0.1664
 2349SOL    HW1 6866   3.009   3.119   0.874 -2.6420 -1.1024 -0.9549
 2349SOL    HW2 6867   2.967   3.244   0.777 -1.9306 -0.5198 -0.5192
 2350SOL     OW 6868   1.742   3.215   2.324 -0.7472  0.1175 -0.1119
 2350SOL    HW1 6869   1.837   3.231   2.297 -0.4057  1.0392  1.4897
 2350SOL    HW2 6870   1.701   3.301   2.353 -0.9667 -0.7740  2.4776
 2351SOL     OW 6871   3.645   4.476   3.831  0.0173 -0.0871 -0.1435
 2351SOL    HW1 6872   3.654   4.502   3.927  1.6027  1.6432 -0.6927
 2351SOL    HW2 6873   3.556   4.504   3.796 -0.5772 -0.7532  0.8046
 2352SOL     OW 6874   2.382   2.337   3.959 -0.1328  0.1382 -0.6037
 2352SOL    HW1 6875   2.311   2.332   4.030  0.5068  0.1884  0.0428
 2352SOL    HW2 6876   2.464   2.290   3.990  1.0111  2.2202 -0.3081
 2353SOL     OW 6877   2.273   1.567   1.024  0.0250  0.3742 -0.0842
 2353SOL    HW1 6878   2.190   1.511   1.019 -0.0705  0.5631 -0.6770
 2353SOL    HW2 6879   2.314   1.575   0.933  1.3711 -0.7162  0.4015
 2354SOL     OW 6880   0.121   1.438   0.185 -0.0129 -0.3040 -0.3943
 2354SOL    HW1 6881   0.162   1.457   0.274  1.0105  0.4721 -1.0128
 2354SOL    HW2 6882   0.189   1.395   0.125  0.4949  2.4492 -1.9683
 2355SOL     OW 6883   2.014   2.168   1.187  0.0936 -0.0572 -0.2138
 2355SOL    HW1 6884   2.019   2.108   1.266  1.7745  0.3045 -0.0189
 2355SOL    HW2 6885   2.052   2.121   1.107 -1.3390 -0.3212 -0.7708
 2356SOL     OW 6886   1.545   1.876   0.033 -0.4439 -0.3588  0.0875
 2356SOL    HW1 6887   1.591   1.882  -0.055 -1.7695  0.7584 -0.5560
 2356SOL    HW2 6888   1.608   1.905   0.105  0.8325 -1.8063 -0.3780
 2357SOL     OW 6889   2.263   2.472   0.440 -0.3149 -0.4534  0.3379
 2357SOL    HW1 6890   2.305   2.528   0.511  1.3062 -1.2902  0.0859
 2357SOL    HW2 6891   2.200   2.528   0.386 -0.5571  0.5093  1.5838
 2358SOL     OW 6892   2.279   2.169   4.893  0.3023  0.5809 -0.3157
 2358SOL    HW1 6893   2.246   2.091   4.839  1.4450  0.1478 -0.4024
 2358SOL    HW2 6894   2.378   2.174   4.888  0.2843  1.7060  0.1720
 2359SOL     OW 6895   4.037   3.677   0.147  0.5709 -0.3801  0.1004
 2359SOL    HW1 6896   4.055   3.675   0.246 -0.5087  0.9170  0.3354
 2359SOL    HW2 6897   4.000   3.588   0.118  0.3571 -0.5802  0.9643
 2360SOL     OW 6898   2.083   3.257   0.118  0.0089 -0.2627  0.0266
 2360SOL    HW1 6899   2.091   3.233   0.215  1.5789 -0.0967 -0.0309
 2360SOL    HW2 6900   2.173   3.251   0.075 -0.4665  0.7651 -1.1779
 2361SOL     OW 6901   2.953   4.261   4.345  0.0957 -0.1668 -0.4276
 2361SOL    HW1 6902   2.986   4.317   4.421 -0.5696  0.7496 -0.7919
 2361SOL    HW2 6903   2.854   4.255   4.348  0.1851 -1.7035 -0.1560
 2362SOL     OW 6904   0.891   3.299   0.309  0.1790  0.1499  0.1391
 2362SOL    HW1 6905   0.902   3.210   0.353  2.0980 -1.4041 -3.0980
 2362SOL    HW2 6906   0.860   3.285   0.215  1.9890  2.7314 -0.9516
 2363SOL     OW 6907   0.639   2.428   4.969  0.1513  0.7561 -0.3063
 2363SOL    HW1 6908   0.718   2.489   4.968 -0.5654  1.7001 -0.0584
 2363SOL    HW2 6909   0.663   2.346   5.021  0.9855  0.9959 -0.2832
 2364SOL     OW 6910   2.165   4.069   0.762  0.1574  0.0269  0.0807
 2364SOL    HW1 6911   2.158   3.981   0.809 -0.6820  1.0146  1.9196
 2364SOL    HW2 6912   2.247   4.116   0.792  0.0137  0.3431 -0.0238
 2365SOL     OW 6913   1.290   3.205   4.658  0.3962  0.5827 -0.6166
 2365SOL    HW1 6914   1.203   3.160   4.636 -0.0575  0.4319  1.2991
 2365SOL    HW2 6915   1.365   3.140   4.645 -0.0797 -0.1950  0.4234
 2366SOL     OW 6916   2.853   1.596   2.008  0.4016 -0.1820 -0.5313
 2366SOL    HW1 6917   2.847   1.496   1.999  3.6540 -0.3782 -1.7064
 2366SOL    HW2 6918   2.814   1.639   1.926 -0.5646 -0.4697 -0.2396
 2367SOL     OW 6919   2.078   3.564   1.660  0.1265  0.2087 -0.6201
 2367SOL    HW1 6920   2.022   3.574   1.578 -0.9076  0.6188  0.1113
 2367SOL    HW2 6921   2.073   3.470   1.693  0.4095  0.0854 -0.9170
 2368SOL     OW 6922   2.589   2.318   0.576  0.1090 -0.8013 -0.4364
 2368SOL    HW1 6923   2.541   2.261   0.509  0.9215  1.0001 -2.6385
 2368SOL    HW2 6924   2.604   2.409   0.538  3.1187 -0.5446  1.1223
 2369SOL     OW 6925   2.098   1.564   2.506  0.1699 -0.4972 -0.0873
 2369SOL    HW1 6926   2.004   1.565   2.539  0.3064  1.1189  0.3444
 2369SOL    HW2 6927   2.160   1.592   2.580  1.0659 -2.1049 -0.1954
 2370SOL     OW 6928   2.760   3.165   1.111 -0.0346 -0.1111  0.2442
 2370SOL    HW1 6929   2.851   3.125   1.099  0.7264  1.3582  0.9201
 2370SOL    HW2 6930   2.760   3.259   1.078 -0.8810  0.4166  1.6919
 2371SOL     OW 6931   2.922   4.332   0.666 -0.5819 -0.7480 -0.2053
 2371SOL    HW1 6932   3.014   4.291   0.664 -0.4036 -0.3354 -0.6655
 2371SOL    HW2 6933   2.928   4.429   0.641 -1.1767 -0.7856 -0.5189
 2372SOL     OW 6934   0.958   1.504   0.153 -0.2934  0.7491 -0.1480
 2372SOL    HW1 6935   1.019   1.563   0.205  0.6147 -1.5868  1.5802
 2372SOL    HW2 6936   0.972   1.519   0.055  0.8077  2.4450  0.2328
 2373SOL     OW 6937   3.564   2.112   1.614 -0.4404 -0.0835  0.0375
 2373SOL    HW1 6938   3.495   2.066   1.671  0.5358  0.5840  1.8396
 2373SOL    HW2 6939   3.637   2.047   1.592  0.2808  0.1904  1.4733
 2374SOL     OW 6940   1.648   2.343   1.672 -0.3747 -0.1433 -0.1028
 2374SOL    HW1 6941   1.624   2.369   1.578  0.2335 -0.9033 -0.4727
 2374SOL    HW2 6942   1.747   2.340   1.681 -0.3809  1.6672  1.0642
 2375SOL     OW 6943   1.282   1.324   5.024 -0.3121 -0.1591  0.1805
 2375SOL    HW1 6944   1.299   1.422   5.032  1.5801 -0.3787 -0.7289
 2375SOL    HW2 6945   1.246   1.304   4.932 -0.7055 -0.3144  0.3677
 2376SOL     OW 6946   2.502   2.884   0.828  0.4212  0.1129 -0.2439
 2376SOL    HW1 6947   2.470   2.795   0.861  2.0197 -0.6287 -0.5656
 2376SOL    HW2 6948   2.511   2.947   0.905 -0.9527  0.0913 -0.0454
 2377SOL     OW 6949   4.252   3.670   1.770 -0.3578  0.0798  0.2561
 2377SOL    HW1 6950   4.185   3.728   1.815  0.6267  0.6295  1.0471
 2377SOL    HW2 6951   4.343   3.711   1.777  0.9039 -2.8008  3.3197
 2378SOL     OW 6952   4.380   4.672   4.822 -0.1626  0.5376 -0.1387
 2378SOL    HW1 6953   4.331   4.756   4.846 -0.8321  0.0786  0.1537
 2378SOL    HW2 6954   4.456   4.693   4.761 -1.6973  1.1303 -1.9476
 2379SOL     OW 6955   2.854   3.464   1.235 -0.0494 -0.1742 -0.6306
 2379SOL    HW1 6956   2.912   3.538   1.200 -1.5973  0.5180 -1.8926
 2379SOL    HW2 6957   2.782   3.444   1.168 -1.7405 -0.4477  1.1721
 2380SOL     OW 6958   0.603   4.112   1.745  0.4832  0.0511  0.2999
 2380SOL    HW1 6959   0.574   4.113   1.841  0.5311  2.1701  0.3305
 2380SOL    HW2 6960   0.597   4.018   1.710  1.7107 -1.0299  2.7324
 2381SOL     OW 6961   2.015   0.941   2.215  0.7971  0.1154 -0.3343
 2381SOL    HW1 6962   2.040   1.003   2.140  1.5026  0.8760  0.4957
 2381SOL    HW2 6963   1.949   0.987   2.274 -1.0869 -1.1180 -1.3835
 2382SOL     OW 6964   2.250   1.889   2.140 -0.2219 -0.5964  0.2715
 2382SOL    HW1 6965   2.334   1.907   2.192 -0.4773  1.2261  0.1461
 2382SOL    HW2 6966   2.220   1.796   2.156 -0.0105 -0.2844  2.9984
 2383SOL     OW 6967   3.398   1.634   2.565  0.2220  0.2146  0.3923
 2383SOL    HW1 6968   3.425   1.727   2.539 -0.3527  0.1631 -0.4388
 2383SOL    HW2 6969   3.433   1.570   2.497 -1.1910  0.0589 -0.2330
 2384SOL     OW 6970   2.492   2.875   1.925  0.3026 -0.2926 -0.8445
 2384SOL    HW1 6971   2.501   2.776   1.913  1.7576 -0.2967  0.1203
 2384SOL    HW2 6972   2.561   2.908   1.989  0.5884  1.5309 -2.0027
 2385SOL     OW 6973   2.657   2.405   2.047 -0.3974 -0.3932 -0.9399
 2385SOL    HW1 6974   2.747   2.437   2.076 -0.2379 -1.2052 -0.5029
 2385SOL    HW2 6975   2.667   2.333   1.979 -0.7554  0.5151 -2.0004
 2386SOL     OW 6976   2.875   3.391   0.820  0.3431  0.0891  0.4865
 2386SOL    HW1 6977   2.778   3.411   0.811  0.0350 -1.5319 -0.1173
 2386SOL    HW2 6978   2.929   3.468   0.785 -0.6997  1.0445  0.9303
 2387SOL     OW 6979   1.704   2.479   0.106 -0.1126 -0.1583  0.0438
 2387SOL    HW1 6980   1.763   2.409   0.146 -0.1874  0.2643  0.9176
 2387SOL    HW2 6981   1.700   2.558   0.167 -1.6053 -0.1899  0.0181
 2388SOL     OW 6982   2.624   1.618   1.793 -0.1818  0.5545 -0.3637
 2388SOL    HW1 6983   2.526   1.635   1.810 -0.5736  0.2256 -2.1580
 2388SOL    HW2 6984   2.639   1.602   1.696  1.6526  0.3913 -0.0855
 2389SOL     OW 6985   2.434   4.289   1.789 -0.0765 -0.2896  0.3581
 2389SOL    HW1 6986   2.462   4.212   1.846  0.1615 -1.2964 -1.0623
 2389SOL    HW2 6987   2.511   4.351   1.777  1.8757 -3.0750 -3.5832
 2390SOL     OW 6988   2.411   4.537   2.430  0.3517 -0.2788 -0.0902
 2390SOL    HW1 6989   2.484   4.483   2.472  0.0770  0.3884  1.3049
 2390SOL    HW2 6990   2.420   4.534   2.330  1.9449 -0.6591  0.0410
 2391SOL     OW 6991   1.769   4.193   0.294 -0.0572 -0.7196 -0.0492
 2391SOL    HW1 6992   1.810   4.240   0.373  2.9381 -0.4298 -1.6438
 2391SOL    HW2 6993   1.836   4.133   0.252 -1.3999 -0.5362 -2.6797
 2392SOL     OW 6994   0.333   0.581   0.673  0.1908  0.3945 -0.3188
 2392SOL    HW1 6995   0.254   0.635   0.701 -1.6849 -1.7631 -1.1383
 2392SOL    HW2 6996   0.358   0.603   0.579  0.6331  1.1077 -0.0442
 2393SOL     OW 6997   4.997   2.979   1.383 -0.1072  0.5146 -0.1086
 2393SOL    HW1 6998   4.986   3.063   1.329  0.9469  1.4551  1.0812
 2393SOL    HW2 6999   5.037   2.908   1.325  2.1503  1.8707 -0.3128
 2394SOL     OW 7000   2.521   2.668   4.818 -0.1933 -0.6651 -0.1715
 2394SOL    HW1 7001   2.424   2.674   4.795 -0.0916 -3.8435 -2.0442
 2394SOL    HW2 7002   2.555   2.758   4.844 -4.0761  0.2236  2.7374
 2395SOL     OW 7003   1.955   1.676   1.625  0.1303  0.4717  0.3169
 2395SOL    HW1 7004   2.041   1.697   1.672 -0.3941  0.5648  1.2774
 2395SOL    HW2 7005   1.910   1.599   1.670 -0.0983  0.1561 -0.4327
 2396SOL     OW 7006   2.908   2.602   1.747 -0.6977 -0.3657 -0.2078
 2396SOL    HW1 7007   2.967   2.528   1.778 -2.3242 -0.9065  1.8514
 2396SOL    HW2 7008   2.835   2.564   1.690 -1.8356 -0.5049  1.2756
 2397SOL     OW 7009   1.853   1.417   1.232 -0.5618 -0.0476 -0.0668
 2397SOL    HW1 7010   1.917   1.345   1.205  1.4120  1.7851 -0.5873
 2397SOL    HW2 7011   1.905   1.495   1.268 -2.5666  1.3443 -0.0581
 2398SOL     OW 7012   1.630   1.714   0.670 -0.0451 -0.2060  0.1122
 2398SOL    HW1 7013   1.691   1.763   0.732 -0.9227  2.2585 -0.8285
 2398SOL    HW2 7014   1.561   1.665   0.723  1.2120 -0.9285  1.1204
 2399SOL     OW 7015   2.188   4.144   1.148  0.5618  0.0182 -0.5592
 2399SOL    HW1 7016   2.090   4.127   1.142  0.4127  1.1193 -1.6925
 2399SOL    HW2 7017   2.203   4.228   1.201  0.9481 -0.5369  0.2332
 2400SOL     OW 7018   4.358   2.579   4.130 -0.1954  0.1211 -0.0246
 2400SOL    HW1 7019   4.308   2.503   4.171 -0.1600  1.4655  2.7499
 2400SOL    HW2 7020   4.301   2.662   4.132  1.0401  0.9931  0.4584
 2401SOL     OW 7021   0.670   2.999   0.021 -0.4408  0.5749 -0.0325
 2401SOL    HW1 7022   0.707   3.091   0.037 -0.0229  0.4440 -0.2246
 2401SOL    HW2 7023   0.734   2.932   0.059 -2.1183  0.4206  2.8505
 2402SOL     OW 7024   2.599   0.867   2.861 -0.5212 -0.4999  0.2146
 2402SOL    HW1 7025   2.645   0.889   2.774 -1.5848 -0.5142 -0.3744
 2402SOL    HW2 7026   2.663   0.820   2.921  0.8566  1.2972  0.2506
 2403SOL     OW 7027   3.293   2.286   1.144 -0.1317  0.5648 -1.1056
 2403SOL    HW1 7028   3.265   2.380   1.126 -1.5044  0.1674 -1.1128
 2403SOL    HW2 7029   3.221   2.223   1.115 -0.4206 -0.3516  1.3851
 2404SOL     OW 7030   2.085   2.652   1.050  0.1099 -0.7716 -0.2659
 2404SOL    HW1 7031   2.002   2.698   1.020  0.1089 -0.5132  0.1120
 2404SOL    HW2 7032   2.069   2.607   1.138  0.1330 -1.4430 -0.5996
 2405SOL     OW 7033   1.485   2.818   0.504  0.0300 -0.1769  0.0010
 2405SOL    HW1 7034   1.461   2.727   0.539 -0.1383  0.4210  1.5275
 2405SOL    HW2 7035   1.584   2.831   0.512  0.1602 -0.4971 -0.9462
 2406SOL     OW 7036   3.292   1.744   1.618 -0.1427 -0.2059  0.7107
 2406SOL    HW1 7037   3.336   1.815   1.673 -0.4327  0.9004 -0.4506
 2406SOL    HW2 7038   3.201   1.775   1.590  0.9391  0.4326 -2.5393
 2407SOL     OW 7039   1.639   4.678   0.659 -0.0395 -0.5177 -0.7160
 2407SOL    HW1 7040   1.563   4.716   0.607  1.2556  0.3868 -2.0524
 2407SOL    HW2 7041   1.647   4.726   0.746 -1.0673 -0.7136 -0.5050
 2408SOL     OW 7042   1.641   2.216   0.651  0.2153 -0.3735  1.2996
 2408SOL    HW1 7043   1.573   2.190   0.720 -1.0343 -0.2600  0.1501
 2408SOL    HW2 7044   1.732   2.214   0.692 -0.4897 -0.2793  2.9571
 2409SOL     OW 7045   3.447   2.623   2.033  0.5771  0.3824  0.7428
 2409SOL    HW1 7046   3.399   2.711   2.034  0.0928  0.2100 -1.5555
 2409SOL    HW2 7047   3.544   2.638   2.014  0.1003  0.3689 -2.0917
 2410SOL     OW 7048   2.676   3.047   3.345 -0.0503  0.4947 -0.1576
 2410SOL    HW1 7049   2.614   2.974   3.371  1.4794 -0.0143  2.4299
 2410SOL    HW2 7050   2.771   3.014   3.351  0.6225  2.2231 -0.5725
 2411SOL     OW 7051   4.181   2.223   1.689  0.0394  0.5368 -0.0390
 2411SOL    HW1 7052   4.163   2.321   1.696  0.6746  0.7485 -1.2108
 2411SOL    HW2 7053   4.252   2.197   1.755 -0.2900  0.8141  0.4303
 2412SOL     OW 7054   2.407   3.358   2.453  0.4043  0.0367  0.0988
 2412SOL    HW1 7055   2.472   3.292   2.491  1.7976  2.0225  1.3694
 2412SOL    HW2 7056   2.452   3.447   2.444 -2.1722  1.5214  1.0845
 2413SOL     OW 7057   0.671   0.680   0.655 -0.3231  0.1455 -0.0926
 2413SOL    HW1 7058   0.686   0.766   0.607 -0.8149  0.4520  0.2878
 2413SOL    HW2 7059   0.587   0.638   0.622  0.3060 -0.5702 -0.8096
 2414SOL     OW 7060   1.185   1.748   1.512  0.5136 -0.1623  0.0303
 2414SOL    HW1 7061   1.143   1.766   1.601 -1.7321  0.3433 -1.0794
 2414SOL    HW2 7062   1.267   1.805   1.501  1.6984 -1.2838  2.3054
 2415SOL     OW 7063   1.549   0.279   0.024  0.4135 -0.1870  0.6928
 2415SOL    HW1 7064   1.611   0.355   0.043  2.0762 -1.0831 -0.8393
 2415SOL    HW2 7065   1.464   0.292   0.074  1.1577  1.9905  1.4963
 2416SOL     OW 7066   4.581   3.694   0.023 -0.0799  0.5294  0.2356
 2416SOL    HW1 7067   4.590   3.621   0.091  0.0503  0.2174 -0.1088
 2416SOL    HW2 7068   4.490   3.692  -0.016 -0.7289  1.7815  1.5870
 2417SOL     OW 7069   3.135   1.895   0.631  0.3129 -0.4461 -0.8112
 2417SOL    HW1 7070   3.195   1.845   0.694 -1.9110 -0.6292  1.3269
 2417SOL    HW2 7071   3.184   1.975   0.595  1.9783 -0.8286  0.4543
 2418SOL     OW 7072   1.327   3.140   0.153  0.7072  0.3141  0.2983
 2418SOL    HW1 7073   1.364   3.053   0.184  0.4341 -0.1775 -0.7440
 2418SOL    HW2 7074   1.401   3.200   0.124  0.8200  0.0332  0.0067
 2419SOL     OW 7075   4.885   2.455   1.317  0.2181 -0.4717  0.3167
 2419SOL    HW1 7076   4.940   2.373   1.303 -0.9549 -1.0863 -0.8771
 2419SOL    HW2 7077   4.789   2.435   1.295 -0.1831  1.0499  0.5984
 2420SOL     OW 7078   3.482   1.491   2.342 -0.3276  0.1489 -0.6999
 2420SOL    HW1 7079   3.430   1.470   2.259  1.2286 -1.9845 -1.2192
 2420SOL    HW2 7080   3.573   1.524   2.317  0.3298 -0.9787  0.1144
 2421SOL     OW 7081   2.047   4.478   0.932  0.4516  0.1828  1.0086
 2421SOL    HW1 7082   2.135   4.504   0.973 -0.0690  1.1056  1.5942
 2421SOL    HW2 7083   2.003   4.559   0.895 -0.1203 -0.2910  0.6419
 2422SOL     OW 7084   1.403   4.337   3.182  0.1166  0.6192  0.2439
 2422SOL    HW1 7085   1.328   4.400   3.160  0.8229  2.0003  1.5993
 2422SOL    HW2 7086   1.490   4.380   3.158  0.7120  0.9075  2.7031
 2423SOL     OW 7087   0.978   0.855   0.906 -0.2643 -0.0670 -0.3242
 2423SOL    HW1 7088   1.078   0.846   0.909 -0.3798 -1.7368 -0.5048
 2423SOL    HW2 7089   0.939   0.772   0.868 -1.7097  0.8026 -0.8119
 2424SOL     OW 7090   3.372   1.596   2.886  0.0271  0.5589 -0.4845
 2424SOL    HW1 7091   3.444   1.579   2.819 -0.2990  0.1265 -0.7307
 2424SOL    HW2 7092   3.298   1.529   2.874  0.6660 -0.5425  1.3362
 2425SOL     OW 7093   2.360   5.031   0.405 -0.1939 -0.5340 -0.3148
 2425SOL    HW1 7094   2.286   5.070   0.460 -0.5468 -2.0440  0.3535
 2425SOL    HW2 7095   2.358   5.071   0.313 -1.6316 -0.2840 -0.1996
 2426SOL     OW 7096   1.931   4.422   2.231 -0.2124 -0.2758 -0.2019
 2426SOL    HW1 7097   1.909   4.406   2.327 -1.6654  0.7242 -0.3271
 2426SOL    HW2 7098   1.928   4.521   2.213  1.1139 -0.3673 -1.0441
 2427SOL     OW 7099   4.130   3.700   0.999 -0.5531 -0.4986 -0.4922
 2427SOL    HW1 7100   4.197   3.748   1.055  0.2311  0.3803 -2.0982
 2427SOL    HW2 7101   4.114   3.609   1.036  0.3478 -0.1574  0.8051
 2428SOL     OW 7102   1.409   3.114   1.691 -0.5036  0.3012  0.4024
 2428SOL    HW1 7103   1.364   3.194   1.651 -0.5413  0.4940  0.8179
 2428SOL    HW2 7104   1.353   3.078   1.765 -0.7789 -0.4901 -0.1840
 2429SOL     OW 7105   1.317   2.454   0.221  0.3682 -0.2682  0.0936
 2429SOL    HW1 7106   1.222   2.473   0.246  0.5494  0.7203  0.0730
 2429SOL    HW2 7107   1.358   2.392   0.289 -0.5566 -1.4960 -0.4202
 2430SOL     OW 7108   4.570   0.188   0.092  0.1515 -0.1366 -0.1605
 2430SOL    HW1 7109   4.580   0.257   0.164  1.2659 -1.0252  0.5566
 2430SOL    HW2 7110   4.544   0.233   0.006 -0.5274  1.0062  0.6203
 2431SOL     OW 7111   4.999   2.257   4.882 -0.0858 -0.1548  0.0934
 2431SOL    HW1 7112   5.050   2.339   4.908  0.1678 -0.6465  1.2285
 2431SOL    HW2 7113   4.963   2.268   4.790  0.6371  0.8932 -0.0859
 2432SOL     OW 7114   1.012   3.407   0.015 -0.0551 -0.3841 -0.3296
 2432SOL    HW1 7115   1.015   3.307   0.015 -0.2717 -0.3915  0.0619
 2432SOL    HW2 7116   1.089   3.443  -0.039  1.2416 -0.7188  1.2253
 2433SOL     OW 7117   2.602   3.911   4.745 -0.0513 -0.4909 -0.5302
 2433SOL    HW1 7118   2.504   3.928   4.754  0.1187  0.0323  0.4052
 2433SOL    HW2 7119   2.621   3.813   4.757 -0.4344 -0.5583 -0.4891
 2434SOL     OW 7120   1.379   3.669   2.225  0.6045  0.2122  0.7097
 2434SOL    HW1 7121   1.282   3.693   2.216  0.3508 -1.1430 -0.4292
 2434SOL    HW2 7122   1.430   3.704   2.146  0.3615 -2.1639 -0.5817
 2435SOL     OW 7123   1.920   3.319   0.934 -0.0035 -0.2754  0.1067
 2435SOL    HW1 7124   1.978   3.399   0.951 -0.7841  0.6113 -1.2384
 2435SOL    HW2 7125   1.966   3.237   0.968  0.6251  0.7744  1.9228
 2436SOL     OW 7126   4.367   4.264   0.250 -0.2118  0.1585 -0.4863
 2436SOL    HW1 7127   4.460   4.292   0.227 -0.0745 -1.1380 -1.6547
 2436SOL    HW2 7128   4.357   4.259   0.349  1.0199  0.0872 -0.3521
 2437SOL     OW 7129   1.754   5.016   3.328 -0.3366  0.0317  0.1425
 2437SOL    HW1 7130   1.744   4.927   3.372  1.5907 -0.6791 -0.7282
 2437SOL    HW2 7131   1.846   5.025   3.291  0.2214  3.2220  1.9186
 2438SOL     OW 7132   4.601   1.953   1.803 -0.1007 -0.0745 -0.0520
 2438SOL    HW1 7133   4.611   1.960   1.704  1.2923  0.0481  0.0853
 2438SOL    HW2 7134   4.641   2.034   1.847 -2.3512  0.7908  0.5474
 2439SOL     OW 7135   3.182   0.540   0.118  0.3313 -0.0326  0.6537
 2439SOL    HW1 7136   3.141   0.605   0.054 -0.1061 -2.1215 -1.3591
 2439SOL    HW2 7137   3.272   0.572   0.147 -0.1428  1.7365  0.2513
 2440SOL     OW 7138   4.036   0.898   1.180 -0.2726 -0.0169  0.2405
 2440SOL    HW1 7139   4.097   0.824   1.152  0.7477  1.1778 -0.8143
 2440SOL    HW2 7140   3.968   0.863   1.245  1.2061 -1.5027  1.0558
 2441SOL     OW 7141   3.152   3.179   0.298  0.4852 -0.3481 -0.1202
 2441SOL    HW1 7142   3.202   3.093   0.293  1.1038 -0.0275  0.3016
 2441SOL    HW2 7143   3.062   3.169   0.257  0.1370 -1.4904  0.8698
 2442SOL     OW 7144   2.267   3.640   2.039 -0.1177  0.2565  0.2006
 2442SOL    HW1 7145   2.298   3.730   2.071  0.4520  0.9814 -2.1785
 2442SOL    HW2 7146   2.324   3.569   2.079  0.4512  1.0637  0.8757
 2443SOL     OW 7147   3.443   3.736   1.166 -0.0294  0.3135  0.2574
 2443SOL    HW1 7148   3.409   3.819   1.210  0.3278  0.5775  0.0427
 2443SOL    HW2 7149   3.396   3.722   1.079 -0.4447  0.0135  0.5218
 2444SOL     OW 7150   0.618   2.111   1.464 -0.0945  0.1703 -0.1790
 2444SOL    HW1 7151   0.549   2.173   1.427 -0.5247 -0.8407 -1.1612
 2444SOL    HW2 7152   0.592   2.082   1.556 -0.8173  0.0806 -0.4022
 2445SOL     OW 7153   3.545   2.889   1.623  0.1999 -0.0215 -0.1286
 2445SOL    HW1 7154   3.491   2.805   1.634 -0.3442  0.0521 -1.9184
 2445SOL    HW2 7155   3.515   2.937   1.540  0.5973  1.8846  0.7871
 2446SOL     OW 7156   1.137   2.772   0.035 -0.3198  0.4683  0.0818
 2446SOL    HW1 7157   1.142   2.790  -0.063  1.4496 -0.2293  0.0032
 2446SOL    HW2 7158   1.217   2.720   0.063 -2.2515 -2.0600  1.3531
 2447SOL     OW 7159   4.969   1.050   0.596  0.6491 -0.5429 -0.0183
 2447SOL    HW1 7160   4.991   1.107   0.517  1.1041 -0.8829 -0.1464
 2447SOL    HW2 7161   5.010   1.089   0.678 -0.3546  0.1539  0.1688
 2448SOL     OW 7162   3.596   4.995   0.456 -0.7938 -0.3382  0.2738
 2448SOL    HW1 7163   3.646   5.081   0.450  1.7500 -1.7362  0.3069
 2448SOL    HW2 7164   3.519   4.997   0.392  0.3428  1.2197 -1.1248
 2449SOL     OW 7165   2.768   2.477   0.923  0.7110 -0.1692 -0.0631
 2449SOL    HW1 7166   2.860   2.442   0.940  1.8080  2.4482 -0.1019
 2449SOL    HW2 7167   2.749   2.552   0.986 -0.9280  0.1538 -0.8923
 2450SOL     OW 7168   2.810   3.007   1.409 -0.0519  0.7437  0.6460
 2450SOL    HW1 7169   2.826   3.104   1.426  1.9924  0.4102  0.9294
 2450SOL    HW2 7170   2.818   2.957   1.495 -2.7885  0.4535  0.8174
 2451SOL     OW 7171   2.931   0.555   0.688 -0.6179  0.2515  0.5074
 2451SOL    HW1 7172   2.917   0.500   0.606  0.5528 -0.9205  1.0528
 2451SOL    HW2 7173   2.867   0.632   0.688 -2.2787 -1.0578 -0.3087
 2452SOL     OW 7174   2.967   4.691   0.205 -0.0474  0.1304  0.5584
 2452SOL    HW1 7175   2.927   4.614   0.255  1.2471  0.2770  1.9050
 2452SOL    HW2 7176   2.935   4.777   0.246  1.3366  0.2500  1.4716
 2453SOL     OW 7177   1.511   3.313   0.022 -0.3333  0.1399 -0.0747
 2453SOL    HW1 7178   1.495   3.392  -0.037 -0.0436 -1.4499 -2.4334
 2453SOL    HW2 7179   1.609   3.306   0.042 -0.5419  1.2406  1.5241
 2454SOL     OW 7180   1.382   3.209   0.969 -0.1026  0.0595 -0.1869
 2454SOL    HW1 7181   1.470   3.255   0.978 -0.0417 -0.1230  0.1614
 2454SOL    HW2 7182   1.356   3.205   0.872  0.6282 -0.5500 -0.3662
 2455SOL     OW 7183   1.359   3.223   0.702  0.1677 -0.4305 -0.2329
 2455SOL    HW1 7184   1.332   3.130   0.677  0.4487 -0.2274 -1.3328
 2455SOL    HW2 7185   1.341   3.285   0.625  0.0584  0.4155  0.4597
 2456SOL     OW 7186   1.531   2.275   1.420 -0.1658 -0.4112  0.1823
 2456SOL    HW1 7187   1.452   2.218   1.442 -1.9877  1.1057 -1.9413
 2456SOL    HW2 7188   1.586   2.230   1.349 -1.2583  0.1294 -1.0477
 2457SOL     OW 7189   3.546   2.068   0.799 -0.3028  0.1837 -0.6873
 2457SOL    HW1 7190   3.580   2.154   0.838  0.2907  0.2712 -1.3844
 2457SOL    HW2 7191   3.596   2.046   0.716 -0.9035 -0.5032 -0.8857
 2458SOL     OW 7192   0.470   2.284   0.980  0.2808  0.2288  0.2663
 2458SOL    HW1 7193   0.517   2.279   0.892 -0.3641 -1.3829 -0.0057
 2458SOL    HW2 7194   0.508   2.360   1.033  1.8695  0.1483 -0.6935
 2459SOL     OW 7195   3.298   3.383   0.783 -0.2152  0.4578 -0.6663
 2459SOL    HW1 7196   3.269   3.288   0.772  1.6460 -0.1941 -0.2640
 2459SOL    HW2 7197   3.334   3.418   0.697  1.2982 -0.0208 -0.2641
 2460SOL     OW 7198   1.547   4.275   2.506 -0.0045  0.0176  0.1020
 2460SOL    HW1 7199   1.607   4.237   2.436  0.0214  1.0524 -0.4591
 2460SOL    HW2 7200   1.456   4.292   2.467 -0.3236 -0.4402  0.6275
 2461SOL     OW 7201   3.233   2.290   1.553 -0.0048 -0.3337 -0.2539
 2461SOL    HW1 7202   3.243   2.271   1.651  0.2583 -0.3900 -0.2907
 2461SOL    HW2 7203   3.252   2.207   1.501 -0.8930 -0.5043 -0.3190
 2462SOL     OW 7204   1.358   2.550   3.440 -0.0161 -0.2657 -0.6860
 2462SOL    HW1 7205   1.376   2.572   3.344  0.2874  0.5121 -0.4637
 2462SOL    HW2 7206   1.260   2.551   3.457 -0.2445 -2.8424 -1.5301
 2463SOL     OW 7207   3.826   4.253   0.177 -0.3501  0.2071  0.5641
 2463SOL    HW1 7208   3.768   4.315   0.124 -1.7248 -0.7742  0.8562
 2463SOL    HW2 7209   3.920   4.288   0.180 -0.3571  0.6038 -1.9753
 2464SOL     OW 7210   3.187   3.559   1.457  1.2470 -0.6019 -0.9698
 2464SOL    HW1 7211   3.132   3.493   1.509  0.1790  1.8236  1.2199
 2464SOL    HW2 7212   3.143   3.577   1.369 -1.4623  0.9591  0.5457
 2465SOL     OW 7213   0.366   3.225   1.686 -0.1188 -0.4598  0.2166
 2465SOL    HW1 7214   0.283   3.174   1.662 -0.5757  0.3758 -0.0008
 2465SOL    HW2 7215   0.384   3.294   1.616 -0.6585  1.0522  1.5204
 2466SOL     OW 7216   3.095   1.571   0.918 -0.4109  0.0455 -0.2566
 2466SOL    HW1 7217   3.080   1.478   0.951  0.2902  0.1595  0.4130
 2466SOL    HW2 7218   3.145   1.567   0.831  0.6703 -0.1886  0.3571
 2467SOL     OW 7219   3.782   0.865   1.321  0.2215  0.0069 -0.0724
 2467SOL    HW1 7220   3.744   0.833   1.234 -1.9158  2.5126 -0.1735
 2467SOL    HW2 7221   3.719   0.842   1.395 -0.2981  1.8986  0.1228
 2468SOL     OW 7222   0.447   3.065   0.308 -0.1584 -0.5213 -0.3160
 2468SOL    HW1 7223   0.393   3.118   0.373  1.2235 -1.1422  1.3983
 2468SOL    HW2 7224   0.387   3.029   0.237 -1.4500  1.6069 -0.4058
 2469SOL     OW 7225   2.483   2.819   1.210  0.6617  0.0806  0.4028
 2469SOL    HW1 7226   2.445   2.745   1.155 -0.5204  0.4669  0.6735
 2469SOL    HW2 7227   2.506   2.784   1.301  0.4151 -0.0309  0.4235
 2470SOL     OW 7228   1.242   0.975   0.524 -0.2888  0.6152 -0.4377
 2470SOL    HW1 7229   1.312   0.911   0.494  0.9919  1.9723 -0.4533
 2470SOL    HW2 7230   1.152   0.943   0.493  0.5908  0.2140 -2.8020
 2471SOL     OW 7231   0.362   3.009   0.858  0.0581 -0.0354 -0.9984
 2471SOL    HW1 7232   0.264   2.993   0.849  0.0691  0.0742 -1.3486
 2471SOL    HW2 7233   0.398   2.960   0.938 -0.0846 -0.9379 -1.4799
 2472SOL     OW 7234   3.556   2.417   0.331 -0.9770  0.1521 -0.0054
 2472SOL    HW1 7235   3.552   2.516   0.344 -0.9908  0.4628 -2.0566
 2472SOL    HW2 7236   3.573   2.372   0.419  1.4208  2.0995  0.6209
 2473SOL     OW 7237   2.572   2.033   0.023 -0.6311  0.4102  0.0802
 2473SOL    HW1 7238   2.561   2.001   0.117 -0.5187  0.0215 -0.0376
 2473SOL    HW2 7239   2.534   1.966  -0.040  0.7820 -0.1332 -0.2389
 2474SOL     OW 7240   2.348   3.965   1.617 -1.1352 -0.2476  0.0134
 2474SOL    HW1 7241   2.262   3.919   1.636 -0.5633 -0.4226  2.4920
 2474SOL    HW2 7242   2.397   3.982   1.702  1.6471 -0.8175 -1.3277
 2475SOL     OW 7243   2.717   3.849   3.736 -0.2663  0.4695  0.1675
 2475SOL    HW1 7244   2.816   3.861   3.731 -0.5559  3.3473 -1.8737
 2475SOL    HW2 7245   2.684   3.812   3.649 -1.0848  1.1419  0.1771
 2476SOL     OW 7246   3.818   1.731   0.859 -0.0495 -0.3735 -0.6778
 2476SOL    HW1 7247   3.784   1.655   0.803 -1.1390  0.4618 -1.2054
 2476SOL    HW2 7248   3.742   1.792   0.881  0.7915  0.5346 -0.2099
 2477SOL     OW 7249   3.180   2.266   1.828  0.5918  0.1265 -0.4880
 2477SOL    HW1 7250   3.175   2.205   1.907  1.0090 -0.6274 -1.0281
 2477SOL    HW2 7251   3.205   2.358   1.857 -0.3463  0.1249  0.3774
 2478SOL     OW 7252   0.131   2.317   1.759 -0.0380 -0.2414 -0.7096
 2478SOL    HW1 7253   0.224   2.279   1.759 -0.5966 -1.7303  0.1827
 2478SOL    HW2 7254   0.134   2.414   1.781  1.2138 -0.6137  0.9680
 2479SOL     OW 7255   0.770   3.380   4.739  0.3458 -0.4547  0.2577
 2479SOL    HW1 7256   0.686   3.342   4.701  1.1692 -0.2053 -1.9131
 2479SOL    HW2 7257   0.746   3.447   4.810 -1.2510 -0.7613  0.0458
 2480SOL     OW 7258   1.739   4.463   4.412 -0.4694  0.1517  0.0666
 2480SOL    HW1 7259   1.785   4.389   4.460 -1.6135 -0.4289  0.2875
 2480SOL    HW2 7260   1.783   4.477   4.323 -0.3552 -0.9214 -0.0610
 2481SOL     OW 7261   2.162   1.858   1.744 -0.0423  0.8247  0.1825
 2481SOL    HW1 7262   2.134   1.916   1.820  1.0315  1.1723  0.3337
 2481SOL    HW2 7263   2.213   1.912   1.678  1.9513 -0.1149  0.8614
 2482SOL     OW 7264   1.752   2.450   2.367 -0.4776 -0.5757  0.6905
 2482SOL    HW1 7265   1.738   2.545   2.339 -0.1112 -1.1952 -1.8177
 2482SOL    HW2 7266   1.811   2.449   2.447 -1.3130  1.3312  1.4104
 2483SOL     OW 7267   2.582   3.626   3.159 -0.4058 -0.4219 -0.5107
 2483SOL    HW1 7268   2.590   3.581   3.248  0.3971 -0.5408 -0.6344
 2483SOL    HW2 7269   2.634   3.711   3.159 -1.0099 -0.0417 -0.6379
 2484SOL     OW 7270   2.568   3.584   2.438 -0.5767  0.2580  0.2282
 2484SOL    HW1 7271   2.604   3.549   2.524 -0.3800 -0.0163  0.0369
 2484SOL    HW2 7272   2.620   3.545   2.362 -2.1742 -1.2899 -0.1373
 2485SOL     OW 7273   1.688   3.055   3.074 -0.0726 -0.4613  0.2704
 2485SOL    HW1 7274   1.771   3.103   3.100 -1.0325  1.2232  0.3873
 2485SOL    HW2 7275   1.698   2.958   3.093  1.0005  0.0264  2.5146
 2486SOL     OW 7276   2.852   2.336   4.002  0.2653  0.5276 -0.2729
 2486SOL    HW1 7277   2.871   2.382   4.089 -0.5498  2.3909 -1.0372
 2486SOL    HW2 7278   2.838   2.404   3.930 -1.6619 -0.8875 -1.3245
 2487SOL     OW 7279   0.795   4.142   3.200  0.5994 -0.2675  0.8005
 2487SOL    HW1 7280   0.699   4.170   3.209  0.5052 -0.9271  2.0685
 2487SOL    HW2 7281   0.820   4.083   3.277  2.0680  0.0028  0.5590
 2488SOL     OW 7282   2.700   4.782   2.122 -0.2525 -0.1765  0.4022
 2488SOL    HW1 7283   2.736   4.873   2.140  0.4063 -0.0686 -1.2326
 2488SOL    HW2 7284   2.776   4.717   2.114 -0.5629 -0.4372 -0.5844
 2489SOL     OW 7285   3.558   3.303   1.938 -0.3703  0.4636  0.2891
 2489SOL    HW1 7286   3.600   3.284   1.849 -0.3470  0.5935  0.2721
 2489SOL    HW2 7287   3.622   3.280   2.011  0.0138  1.3542  0.2470
 2490SOL     OW 7288   3.839   3.178   4.970  0.5963 -0.9737 -0.3401
 2490SOL    HW1 7289   3.914   3.212   4.913  0.9453 -1.2676 -0.0566
 2490SOL    HW2 7290   3.875   3.141   5.055 -0.1365  2.6908  1.7847
 2491SOL     OW 7291   3.952   4.466   2.333  0.1580 -0.2603 -0.3914
 2491SOL    HW1 7292   3.964   4.368   2.318  0.0238 -0.3839  0.2973
 2491SOL    HW2 7293   4.005   4.517   2.264  0.7900 -0.8110 -0.3216
 2492SOL     OW 7294   3.414   3.562   3.254  0.1943  0.2817 -0.5356
 2492SOL    HW1 7295   3.439   3.470   3.286 -0.0723 -0.3501 -2.0481
 2492SOL    HW2 7296   3.484   3.595   3.191  0.3954  1.2237  0.1731
 2493SOL     OW 7297   2.483   3.617   2.847 -0.1225 -0.5485  0.6900
 2493SOL    HW1 7298   2.400   3.672   2.849  0.6539  0.7012 -0.3218
 2493SOL    HW2 7299   2.547   3.650   2.917  0.3757 -0.1137  0.0307
 2494SOL     OW 7300   2.961   2.238   2.761 -0.0517  0.6451 -0.1385
 2494SOL    HW1 7301   2.884   2.271   2.816  0.3953  0.7314  0.4418
 2494SOL    HW2 7302   2.992   2.150   2.797  0.7409  1.0688  0.2449
 2495SOL     OW 7303   3.126   3.218   3.067 -0.2927  0.1103  0.8847
 2495SOL    HW1 7304   3.099   3.216   3.163 -1.9594 -1.1231  0.4567
 2495SOL    HW2 7305   3.133   3.124   3.033  0.9389  0.5171 -0.0434
 2496SOL     OW 7306   1.665   2.549   4.194  0.4696  0.7899 -0.0859
 2496SOL    HW1 7307   1.648   2.595   4.107 -1.1694 -0.1740 -0.3158
 2496SOL    HW2 7308   1.722   2.468   4.178  0.5745  0.8845 -0.1891
 2497SOL     OW 7309   4.331   3.384   2.471 -0.3783  0.0365 -0.0117
 2497SOL    HW1 7310   4.422   3.424   2.471  0.0215 -0.7549  1.8929
 2497SOL    HW2 7311   4.329   3.305   2.533 -1.6825 -1.5950 -1.9567
 2498SOL     OW 7312   2.294   3.024   3.093  0.2094 -0.0861 -0.0857
 2498SOL    HW1 7313   2.370   3.083   3.120  0.0699  1.1549 -2.1868
 2498SOL    HW2 7314   2.324   2.964   3.018 -0.6792 -0.0563 -0.4783
 2499SOL     OW 7315   1.917   3.568   3.572 -0.0060 -0.3680 -0.2956
 2499SOL    HW1 7316   1.830   3.520   3.562  0.0043 -0.5804  0.5303
 2499SOL    HW2 7317   1.962   3.575   3.483 -0.5008 -0.9482 -0.6003
 2500SOL     OW 7318   1.915   0.064   2.082  0.2075  0.1038  0.0753
 2500SOL    HW1 7319   1.951   0.145   2.129 -0.7222  0.8733 -0.5192
 2500SOL    HW2 7320   1.988   0.022   2.028  0.5944  0.7783  0.0630
 2501SOL     OW 7321   2.785   4.733   3.371 -0.3902  0.4420 -0.3253
 2501SOL    HW1 7322   2.696   4.688   3.383  0.0534 -0.4185 -0.2130
 2501SOL    HW2 7323   2.854   4.665   3.348 -0.0045  1.2738 -1.7308
 2502SOL     OW 7324   1.000   0.213   3.554  0.2532  0.7982 -0.5469
 2502SOL    HW1 7325   0.979   0.203   3.457 -0.5098  0.6784 -0.3738
 2502SOL    HW2 7326   0.948   0.289   3.592 -0.6512 -0.1378  0.1190
 2503SOL     OW 7327   3.926   1.171   3.989  0.0293 -0.6383 -0.0486
 2503SOL    HW1 7328   4.023   1.178   3.966  0.0022  0.8941  0.1693
 2503SOL    HW2 7329   3.890   1.084   3.957  1.4427 -1.1689 -0.2538
 2504SOL     OW 7330   2.532   1.536   2.196 -0.1270  0.4065 -0.4204
 2504SOL    HW1 7331   2.600   1.469   2.166  0.5250  0.5116  0.7492
 2504SOL    HW2 7332   2.479   1.497   2.271 -0.9812  0.5426 -0.9436
 2505SOL     OW 7333   3.092   4.294   2.488 -0.3864 -0.5605  0.6716
 2505SOL    HW1 7334   3.190   4.304   2.508 -0.3819  1.0191 -0.0180
 2505SOL    HW2 7335   3.081   4.239   2.405 -0.0590 -0.2487  0.4190
 2506SOL     OW 7336   2.315   2.817   3.741  0.0506 -0.0615 -0.3554
 2506SOL    HW1 7337   2.292   2.793   3.646  1.5138 -0.8190 -0.5557
 2506SOL    HW2 7338   2.259   2.763   3.803 -0.6238  0.1291 -0.7892
 2507SOL     OW 7339   3.218   4.167   4.815 -0.1382  0.1119  0.4157
 2507SOL    HW1 7340   3.250   4.229   4.886 -2.6254  0.7035  1.1138
 2507SOL    HW2 7341   3.160   4.097   4.855 -1.7706  0.5668 -1.0253
 2508SOL     OW 7342   3.645   4.190   4.396 -0.0451  0.2965  0.3517
 2508SOL    HW1 7343   3.607   4.238   4.317  0.5021  1.8223  0.9696
 2508SOL    HW2 7344   3.698   4.254   4.451  0.4234 -0.9681  1.4234
 2509SOL     OW 7345   2.648   1.793   2.946  0.0688 -0.2174 -0.4871
 2509SOL    HW1 7346   2.728   1.779   3.005 -1.8107 -1.3037  2.0061
 2509SOL    HW2 7347   2.588   1.861   2.988 -2.8300 -3.2336  0.7149
 2510SOL     OW 7348   1.693   3.285   1.745 -0.0899 -0.2958  0.3864
 2510SOL    HW1 7349   1.645   3.205   1.709  0.0281  0.4355 -1.5104
 2510SOL    HW2 7350   1.636   3.331   1.812 -1.7576  0.1085 -1.2332
 2511SOL     OW 7351   3.590   2.425   3.174  0.3037 -0.1728  0.3121
 2511SOL    HW1 7352   3.562   2.490   3.245  0.3674 -0.6991  0.8299
 2511SOL    HW2 7353   3.512   2.404   3.116  0.2006  0.1125  0.3435
 2512SOL     OW 7354   3.753   1.730   2.715 -0.1888 -0.0611  0.1169
 2512SOL    HW1 7355   3.766   1.632   2.730 -1.5828 -0.2243  0.4380
 2512SOL    HW2 7356   3.789   1.781   2.792 -1.3896 -0.4835  0.9973
 2513SOL     OW 7357   2.811   2.394   0.107  0.2199  0.5466 -0.5993
 2513SOL    HW1 7358   2.757   2.326   0.157  1.8360  0.4389  1.0975
 2513SOL    HW2 7359   2.764   2.483   0.112 -0.2112  0.2880  0.1456
 2514SOL     OW 7360   2.369   0.152   0.156  0.2355  0.1472  0.0229
 2514SOL    HW1 7361   2.286   0.121   0.110 -1.3214  1.8582  1.5082
 2514SOL    HW2 7362   2.395   0.243   0.122  0.7880  0.1538  0.4397
 2515SOL     OW 7363   1.833   3.340   1.993  0.4918  0.1742 -0.3215
 2515SOL    HW1 7364   1.785   3.336   1.905  0.9060  3.0893 -0.7972
 2515SOL    HW2 7365   1.898   3.416   1.991  1.3846 -0.4562  2.1202
 2516SOL     OW 7366   2.968   1.328   0.564 -0.2507 -0.1261  0.0922
 2516SOL    HW1 7367   2.892   1.325   0.629 -1.3074 -0.4662 -1.1181
 2516SOL    HW2 7368   2.981   1.237   0.525 -0.0353  0.2049 -0.6180
 2517SOL     OW 7369   4.673   1.351   3.864 -0.3412  0.4532  0.4898
 2517SOL    HW1 7370   4.599   1.412   3.893  0.8659  2.3506 -0.1818
 2517SOL    HW2 7371   4.752   1.365   3.922 -0.2636 -1.0739  0.7854
 2518SOL     OW 7372   4.467   2.683   1.575 -0.3962  0.6372 -0.1339
 2518SOL    HW1 7373   4.450   2.590   1.608 -0.3915  0.4458 -0.6566
 2518SOL    HW2 7374   4.523   2.679   1.492  0.0128  1.1345  0.1158
 2519SOL     OW 7375   4.597   2.967   2.535  0.0699  0.3594 -0.2849
 2519SOL    HW1 7376   4.548   2.924   2.611 -0.3982  0.7303 -0.3747
 2519SOL    HW2 7377   4.693   2.940   2.538 -0.1137 -0.2979 -0.0475
 2520SOL     OW 7378   2.321   3.004   0.076 -0.3347 -0.3561  0.4957
 2520SOL    HW1 7379   2.235   2.992   0.126 -0.2276 -0.4008  0.6662
 2520SOL    HW2 7380   2.391   2.943   0.114 -0.2773 -0.4520  0.2393
 2521SOL     OW 7381   1.853   3.844   3.963  0.4159  0.1111 -0.1915
 2521SOL    HW1 7382   1.758   3.845   3.995  0.6458 -0.2970  0.5317
 2521SOL    HW2 7383   1.871   3.758   3.915  0.1352  0.6280 -1.2540
 2522SOL     OW 7384   1.891   4.782   3.796 -0.2816 -0.2604 -0.2014
 2522SOL    HW1 7385   1.851   4.860   3.747  0.7368  0.6742  0.4132
 2522SOL    HW2 7386   1.832   4.702   3.785 -2.3111  1.0287  0.5720
 2523SOL     OW 7387   0.139   0.871   4.205  0.2222  0.1030 -0.1400
 2523SOL    HW1 7388   0.072   0.944   4.221 -1.0101 -0.3607 -2.7046
 2523SOL    HW2 7389   0.228   0.912   4.183 -0.2477  0.8257 -0.7412
 2524SOL     OW 7390   3.916   2.696   2.285  0.0425  0.0334 -1.3105
 2524SOL    HW1 7391   3.909   2.714   2.383  1.4894 -1.2700 -0.9274
 2524SOL    HW2 7392   3.825   2.678   2.248 -0.3769 -0.9989  0.1332
 2525SOL     OW 7393   2.594   3.213   2.786 -0.2050 -0.3000 -0.6887
 2525SOL    HW1 7394   2.601   3.195   2.688 -3.3383 -2.6065 -0.6663
 2525SOL    HW2 7395   2.652   3.149   2.836  0.8428  0.3945 -0.9984
 2526SOL     OW 7396   1.034   4.892   2.969 -0.2324 -0.4178  0.1925
 2526SOL    HW1 7397   1.097   4.941   3.029 -1.3070  1.0216  0.2049
 2526SOL    HW2 7398   1.081   4.869   2.883  1.0017 -1.5752  1.1435
 2527SOL     OW 7399   1.182   4.558   3.038 -0.2157 -0.3160  0.7976
 2527SOL    HW1 7400   1.229   4.640   3.006 -0.2102 -0.6252 -0.0249
 2527SOL    HW2 7401   1.157   4.569   3.134 -2.0849  1.5398  0.1933
 2528SOL     OW 7402   3.020   3.413   3.720  0.3528  0.0322 -0.4318
 2528SOL    HW1 7403   3.061   3.331   3.761 -1.1310 -0.8757 -0.7107
 2528SOL    HW2 7404   2.943   3.387   3.663  0.6117  1.5396 -1.5241
 2529SOL     OW 7405   3.887   1.872   2.901  0.1726 -0.1292 -0.2527
 2529SOL    HW1 7406   3.923   1.936   2.833  0.7258  0.2509  0.3836
 2529SOL    HW2 7407   3.962   1.825   2.947 -0.2026 -0.5738 -0.0810
 2530SOL     OW 7408   2.866   1.559   2.764 -0.1056  0.2732  0.3159
 2530SOL    HW1 7409   2.956   1.547   2.722  0.1206 -0.3867  0.9682
 2530SOL    HW2 7410   2.818   1.633   2.717  1.3202  1.6178  0.8561
 2531SOL     OW 7411   0.758   2.249   4.115  0.5751 -0.0558 -0.4360
 2531SOL    HW1 7412   0.762   2.349   4.112 -2.7016  0.1991  0.0638
 2531SOL    HW2 7413   0.792   2.212   4.028 -1.4000  1.7394 -2.0817
 2532SOL     OW 7414   1.013   4.411   3.751  0.2147 -0.4017  0.4805
 2532SOL    HW1 7415   1.021   4.430   3.653 -0.7494 -0.5618  0.3618
 2532SOL    HW2 7416   1.104   4.412   3.792  0.5305  0.8447 -0.1907
 2533SOL     OW 7417   4.505   1.371   2.424  1.1849  0.1871 -0.0391
 2533SOL    HW1 7418   4.571   1.314   2.473  0.4001 -0.8005 -0.0902
 2533SOL    HW2 7419   4.496   1.338   2.330  0.0574 -0.2004  0.1834
 2534SOL     OW 7420   3.749   3.085   2.786  0.5257  0.4226  0.0371
 2534SOL    HW1 7421   3.742   3.007   2.724 -1.1141 -1.9544  2.9478
 2534SOL    HW2 7422   3.845   3.096   2.813  0.9773  0.3013 -1.4259
 2535SOL     OW 7423   3.430   2.634   2.958 -0.1551  0.0339 -0.0430
 2535SOL    HW1 7424   3.415   2.536   2.951 -2.6160  0.3532 -0.4624
 2535SOL    HW2 7425   3.472   2.668   2.874 -2.2693 -0.2620 -1.2867
 2536SOL     OW 7426   2.233   1.975   2.443  0.5042  0.1919 -0.2625
 2536SOL    HW1 7427   2.304   1.946   2.379 -0.8854  0.5340 -2.0139
 2536SOL    HW2 7428   2.143   1.962   2.402 -0.3517  3.3054  0.3498
 2537SOL     OW 7429   4.421   3.577   1.468  0.1883 -0.2627  0.3587
 2537SOL    HW1 7430   4.321   3.573   1.469  0.1549 -0.6004 -1.1784
 2537SOL    HW2 7431   4.451   3.669   1.493 -0.6042  0.4125 -1.0074
 2538SOL     OW 7432   0.277   2.528   1.413  0.2716 -0.9461 -0.0249
 2538SOL    HW1 7433   0.347   2.529   1.484  1.4214  0.5572 -1.1276
 2538SOL    HW2 7434   0.189   2.552   1.453  0.8460 -0.4073  0.9496
 2539SOL     OW 7435   2.469   3.962   2.730  0.1208  0.4088  0.3937
 2539SOL    HW1 7436   2.417   3.907   2.796 -0.6263 -0.3786 -0.8011
 2539SOL    HW2 7437   2.508   3.901   2.661  0.7507  1.2369  0.0071
 2540SOL     OW 7438   3.459   4.208   3.501 -0.2178 -0.5042  0.1761
 2540SOL    HW1 7439   3.414   4.292   3.471 -0.0978  0.3142  2.1881
 2540SOL    HW2 7440   3.539   4.231   3.556  0.7237 -1.9562 -0.5298
 2541SOL     OW 7441   1.891   3.470   2.964  0.2938 -0.2177 -0.5289
 2541SOL    HW1 7442   1.876   3.517   2.878  0.2820  0.3773 -0.2066
 2541SOL    HW2 7443   1.862   3.375   2.956 -2.0925  0.4395 -0.4262
 2542SOL     OW 7444   3.928   2.785   2.555  0.1763 -0.1176  0.8617
 2542SOL    HW1 7445   4.009   2.835   2.583 -1.6756  2.6506  1.6361
 2542SOL    HW2 7446   3.847   2.824   2.599 -1.7747 -1.8474 -0.9580
 2543SOL     OW 7447   2.853   2.855   1.640 -0.0566 -0.2906 -0.2467
 2543SOL    HW1 7448   2.911   2.925   1.681  0.5033 -0.2583 -1.0499
 2543SOL    HW2 7449   2.883   2.765   1.671 -0.5409 -0.1992  0.4995
 2544SOL     OW 7450   4.382   4.040   3.459  0.3478 -0.3822 -0.5533
 2544SOL    HW1 7451   4.398   4.041   3.360  0.9444  0.4634 -0.4611
 2544SOL    HW2 7452   4.444   3.973   3.501  1.4664  0.6238 -0.5532
 2545SOL     OW 7453   2.416   0.975   2.275  0.1259  0.0106 -0.2276
 2545SOL    HW1 7454   2.403   1.027   2.360  3.2629 -2.3865  1.9319
 2545SOL    HW2 7455   2.355   0.896   2.273 -0.0443  0.1430 -0.2922
 2546SOL     OW 7456   0.227   2.618   2.098 -0.1355  0.5486 -0.4310
 2546SOL    HW1 7457   0.323   2.634   2.120 -0.2160  1.1023 -0.4847
 2546SOL    HW2 7458   0.195   2.537   2.147  0.7471 -0.4909 -1.5080
 2547SOL     OW 7459   3.621   2.460   2.693  0.1122  0.9059  0.3383
 2547SOL    HW1 7460   3.603   2.550   2.733 -1.7888  1.6758 -2.0153
 2547SOL    HW2 7461   3.540   2.403   2.701  1.3084 -0.6944  1.8296
 2548SOL     OW 7462   1.237   3.490   1.246 -0.4957 -0.0277 -0.2325
 2548SOL    HW1 7463   1.230   3.390   1.246  1.5990 -0.2124  0.1463
 2548SOL    HW2 7464   1.297   3.520   1.172 -0.5216  0.8873  0.1061
 2549SOL     OW 7465   2.672   2.927   2.093 -0.1212 -0.0383  0.9649
 2549SOL    HW1 7466   2.706   2.837   2.122  0.1142  0.2872  1.7116
 2549SOL    HW2 7467   2.678   2.991   2.169  1.1857  1.0390 -0.0176
 2550SOL     OW 7468   3.182   1.133   2.044 -0.0243 -0.5572 -0.1832
 2550SOL    HW1 7469   3.111   1.063   2.055  0.7370 -1.4192 -0.5856
 2550SOL    HW2 7470   3.141   1.218   2.013 -1.4273  0.1513  3.1495
 2551SOL     OW 7471   2.624   5.018   4.418  0.4555 -0.0136  0.2793
 2551SOL    HW1 7472   2.665   5.092   4.471  0.4236 -0.8065  1.4476
 2551SOL    HW2 7473   2.658   4.930   4.451 -0.4762 -0.5865 -0.2281
 2552SOL     OW 7474   3.698   2.273   3.600  0.3664  0.0376 -0.2183
 2552SOL    HW1 7475   3.651   2.202   3.547  1.2325 -1.6764  1.1671
 2552SOL    HW2 7476   3.632   2.343   3.626 -0.4446 -0.0018 -1.9876
 2553SOL     OW 7477   2.322   3.699   3.153 -0.0439 -0.1024  0.6675
 2553SOL    HW1 7478   2.313   3.783   3.207 -0.1379 -0.0415  0.5570
 2553SOL    HW2 7479   2.416   3.666   3.160 -0.4289 -0.9685  2.1483
 2554SOL     OW 7480   3.480   3.162   2.715 -0.0416  0.4845  0.2550
 2554SOL    HW1 7481   3.539   3.113   2.779 -0.5365 -0.0380  0.3180
 2554SOL    HW2 7482   3.531   3.238   2.673  1.4022 -1.2651 -1.3354
 2555SOL     OW 7483   3.707   3.925   1.987  0.0368  0.4579  0.0738
 2555SOL    HW1 7484   3.746   3.836   2.010 -0.3996  0.4585  0.8582
 2555SOL    HW2 7485   3.699   3.934   1.888 -1.4741 -1.0602  0.0133
 2556SOL     OW 7486   3.028   4.692   4.302 -0.2053  0.1590  0.0333
 2556SOL    HW1 7487   3.126   4.711   4.313  0.3347 -1.0085 -2.1582
 2556SOL    HW2 7488   2.991   4.657   4.387  1.3440  0.3521  0.8210
 2557SOL     OW 7489   1.379   2.346   4.104  0.5144 -0.7095 -0.0936
 2557SOL    HW1 7490   1.286   2.341   4.068  0.1208 -2.2533  1.0187
 2557SOL    HW2 7491   1.408   2.442   4.108 -0.3106 -0.3178 -2.1414
 2558SOL     OW 7492   2.906   3.590   1.810  1.1005 -0.2325 -0.1911
 2558SOL    HW1 7493   2.891   3.610   1.907  1.1372 -0.6388 -0.1004
 2558SOL    HW2 7494   2.835   3.529   1.777  0.4917  0.7159 -0.6885
 2559SOL     OW 7495   4.833   2.854   2.226 -0.3122 -0.1711 -0.6430
 2559SOL    HW1 7496   4.747   2.904   2.216  0.5429  1.4427 -0.3212
 2559SOL    HW2 7497   4.867   2.828   2.136 -0.6919 -0.0047 -0.8362
 2560SOL     OW 7498   2.815   2.447   2.943 -0.3412  0.2461 -0.7168
 2560SOL    HW1 7499   2.865   2.516   2.995  0.3673  0.1386 -1.2425
 2560SOL    HW2 7500   2.721   2.439   2.979  0.0736  0.2995  0.4296
 2561SOL     OW 7501   1.930   2.442   3.776  0.5179 -0.4134  0.1729
 2561SOL    HW1 7502   1.957   2.484   3.863  0.6649  0.1097 -0.1224
 2561SOL    HW2 7503   2.009   2.397   3.735  0.9669  1.1006 -0.6814
 2562SOL     OW 7504   3.954   3.163   1.084 -0.0465 -0.1332  0.2113
 2562SOL    HW1 7505   3.938   3.257   1.112  5.2010  1.2847 -0.5682
 2562SOL    HW2 7506   3.926   3.101   1.158 -0.8510  2.2250  1.9976
 2563SOL     OW 7507   3.542   3.497   4.103 -0.3773 -0.3070 -0.4602
 2563SOL    HW1 7508   3.537   3.590   4.069  0.0161 -0.1621 -0.1262
 2563SOL    HW2 7509   3.467   3.481   4.168 -0.8857 -0.4587 -1.0771
 2564SOL     OW 7510   2.252   4.403   3.677 -1.1651 -0.6289 -0.5182
 2564SOL    HW1 7511   2.292   4.388   3.586 -0.5942 -2.0182 -0.0760
 2564SOL    HW2 7512   2.299   4.345   3.744 -2.7005 -0.9132  0.3684
 2565SOL     OW 7513   3.088   3.368   3.383  0.2938 -0.3595 -0.4855
 2565SOL    HW1 7514   3.110   3.466   3.374 -1.1408 -0.1469 -2.0588
 2565SOL    HW2 7515   2.989   3.356   3.381  0.2232 -1.5893  3.0367
 2566SOL     OW 7516   2.602   2.761   3.142 -0.6787 -0.3414  0.2701
 2566SOL    HW1 7517   2.698   2.745   3.162 -0.4081  0.8081 -0.0396
 2566SOL    HW2 7518   2.553   2.781   3.227 -0.4101  0.2318  0.2904
 2567SOL     OW 7519   2.829   1.251   4.976  0.0935 -0.6417 -0.4511
 2567SOL    HW1 7520   2.871   1.314   5.041 -0.1429  1.3253 -2.0765
 2567SOL    HW2 7521   2.732   1.242   4.997 -0.5885  2.0685 -1.8914
 2568SOL     OW 7522   1.336   1.215   4.548  0.3255  0.3313  0.1768
 2568SOL    HW1 7523   1.422   1.173   4.518 -0.5466 -1.8837  0.6216
 2568SOL    HW2 7524   1.314   1.291   4.487  1.5746 -0.3385 -1.1904
 2569SOL     OW 7525   1.103   2.314   3.415  0.3902  0.6774 -0.4019
 2569SOL    HW1 7526   1.063   2.255   3.345 -1.0173 -1.7737  2.2692
 2569SOL    HW2 7527   1.202   2.303   3.415  0.5585  1.6798 -2.7169
 2570SOL     OW 7528   3.038   1.830   3.256  0.7520  0.4394  0.7244
 2570SOL    HW1 7529   3.054   1.922   3.219  0.4437 -0.0080 -0.5704
 2570SOL    HW2 7530   3.125   1.786   3.275  1.0431 -0.1256 -1.5888
 2571SOL     OW 7531   3.141   1.564   2.682 -0.1180  0.0889 -0.1167
 2571SOL    HW1 7532   3.145   1.479   2.735  0.5640  1.3759  2.0217
 2571SOL    HW2 7533   3.234   1.596   2.663 -0.3496  0.9455  0.1416
 2572SOL     OW 7534   4.650   3.167   3.462 -0.2710  0.6583 -0.7520
 2572SOL    HW1 7535   4.659   3.174   3.363 -1.2473  0.0446 -0.8995
 2572SOL    HW2 7536   4.721   3.106   3.498 -0.1542  0.5796 -1.1136
 2573SOL     OW 7537   1.393   4.479   3.602  0.1773 -0.0054  0.2194
 2573SOL    HW1 7538   1.356   4.450   3.514 -0.3459  0.0447  0.4176
 2573SOL    HW2 7539   1.341   4.558   3.635  0.2308 -0.1591  0.6730
 2574SOL     OW 7540   0.775   1.400   0.339 -0.0664 -0.2342  0.0704
 2574SOL    HW1 7541   0.761   1.477   0.400 -0.4039 -0.2821  0.0579
 2574SOL    HW2 7542   0.863   1.409   0.292 -0.3260  0.3984 -0.3033
 2575SOL     OW 7543   2.281   2.949   4.745 -0.3064  0.1197  0.3214
 2575SOL    HW1 7544   2.289   2.855   4.778 -0.7878  0.3035  0.9650
 2575SOL    HW2 7545   2.187   2.981   4.757  0.0416  0.9656  0.8676
 2576SOL     OW 7546   3.310   4.377   5.011 -0.6920  0.3775 -0.0717
 2576SOL    HW1 7547   3.240   4.448   5.023 -1.2043 -0.4886  2.7358
 2576SOL    HW2 7548   3.390   4.399   5.068 -0.4807 -0.8470  0.1215
 2577SOL     OW 7549   2.241   3.120   1.602 -0.4511 -0.4174 -0.0241
 2577SOL    HW1 7550   2.333   3.150   1.577 -0.9424  0.5991 -0.6597
 2577SOL    HW2 7551   2.241   3.087   1.697  0.2125  1.2563  0.5920
 2578SOL     OW 7552   2.892   1.530   0.355 -0.2833  0.6323 -0.2746
 2578SOL    HW1 7553   2.930   1.449   0.399 -1.4874 -0.3818 -1.0178
 2578SOL    HW2 7554   2.954   1.607   0.367  1.4124 -0.6538 -0.4889
 2579SOL     OW 7555   2.822   3.615   2.051  0.1349  0.1757 -0.6648
 2579SOL    HW1 7556   2.834   3.710   2.081 -0.7889  0.5711 -1.5034
 2579SOL    HW2 7557   2.875   3.555   2.110 -0.9688  0.9961  1.2225
 2580SOL     OW 7558   1.317   3.938   1.621 -0.0214  0.2639  0.0077
 2580SOL    HW1 7559   1.286   3.915   1.529 -0.6613  1.0488  0.0232
 2580SOL    HW2 7560   1.238   3.949   1.682  0.3601  0.5515  0.4606
 2581SOL     OW 7561   2.723   0.400   4.192 -0.0223  0.1963 -0.5955
 2581SOL    HW1 7562   2.815   0.372   4.219  0.3940 -0.6801 -2.7374
 2581SOL    HW2 7563   2.665   0.320   4.182 -0.7145  0.6580 -0.4158
 2582SOL     OW 7564   3.188   2.024   4.706  0.2169  0.6021 -0.6665
 2582SOL    HW1 7565   3.272   2.006   4.655  0.2992  1.9950 -1.0704
 2582SOL    HW2 7566   3.205   2.097   4.773  0.1308 -1.1855  1.4460
 2583SOL     OW 7567   1.202   3.980   1.878  0.3223 -0.7032  0.2517
 2583SOL    HW1 7568   1.140   3.909   1.847 -0.6853 -0.4825  1.6580
 2583SOL    HW2 7569   1.160   4.031   1.953  1.0418  1.3271 -0.6273
 2584SOL     OW 7570   2.393   3.994   2.421  0.1563  0.3357  0.3061
 2584SOL    HW1 7571   2.437   4.081   2.400 -1.4542  0.6956 -1.9176
 2584SOL    HW2 7572   2.310   4.010   2.474  0.6398 -0.0091  1.1909
 2585SOL     OW 7573   2.437   2.858   2.941  0.1793  0.2829  0.3684
 2585SOL    HW1 7574   2.480   2.841   2.852 -1.0873 -1.6629  0.0476
 2585SOL    HW2 7575   2.504   2.845   3.014  0.8019  0.1154 -0.2290
 2586SOL     OW 7576   4.747   3.588   2.604 -0.3096 -0.1062 -0.1617
 2586SOL    HW1 7577   4.746   3.590   2.704  0.9551  1.5919 -0.1408
 2586SOL    HW2 7578   4.839   3.612   2.572 -0.8955  0.0830 -1.7473
 2587SOL     OW 7579   4.271   1.663   4.684  0.6277 -0.4328 -0.4929
 2587SOL    HW1 7580   4.320   1.576   4.692 -0.1631 -0.7598  1.1762
 2587SOL    HW2 7581   4.175   1.650   4.707  0.2025  0.6445 -1.5378
 2588SOL     OW 7582   2.150   3.236   3.074  0.1368  0.0583  0.0933
 2588SOL    HW1 7583   2.206   3.154   3.086 -1.9464 -1.6424 -1.1031
 2588SOL    HW2 7584   2.146   3.260   2.977  0.7434  1.6363  0.4346
 2589SOL     OW 7585   3.142   3.016   2.080  0.1516 -0.3081 -0.3527
 2589SOL    HW1 7586   3.167   3.086   2.012  0.8769 -0.1398  0.0746
 2589SOL    HW2 7587   3.146   3.056   2.171  0.4683 -0.8793 -0.1129
 2590SOL     OW 7588   3.299   2.969   4.070  0.2820  0.0829  0.3049
 2590SOL    HW1 7589   3.313   3.004   4.162 -0.1994 -0.6107  0.6504
 2590SOL    HW2 7590   3.216   2.914   4.068 -0.6084  1.3847 -0.9069
 2591SOL     OW 7591   1.685   0.894   2.832 -0.2705  0.4648  0.3722
 2591SOL    HW1 7592   1.689   0.828   2.757  2.0252 -0.8719  1.5517
 2591SOL    HW2 7593   1.631   0.856   2.907 -1.0233  1.0183  0.1222
 2592SOL     OW 7594   3.449   4.494   0.941  0.6461 -0.6844  0.0090
 2592SOL    HW1 7595   3.511   4.550   0.995 -0.7426 -0.7286  1.7589
 2592SOL    HW2 7596   3.480   4.491   0.846  0.8174  3.0309 -0.1987
 2593SOL     OW 7597   3.688   1.887   1.472  0.2857  0.0120 -0.5432
 2593SOL    HW1 7598   3.694   1.940   1.387  2.7464  0.0753 -0.4054
 2593SOL    HW2 7599   3.737   1.800   1.460  1.6106  0.4789  1.0913
 2594SOL     OW 7600   2.617   2.987   4.057  0.1568  0.1903  0.3646
 2594SOL    HW1 7601   2.557   2.993   3.978 -0.2172  0.7909  0.6930
 2594SOL    HW2 7602   2.644   2.891   4.071  0.4844  0.1212 -0.6678
 2595SOL     OW 7603   1.290   1.295   0.875 -0.0124  0.3019  0.0242
 2595SOL    HW1 7604   1.242   1.328   0.794  0.0129 -2.2439 -1.1040
 2595SOL    HW2 7605   1.226   1.288   0.951 -0.5624  0.4902 -0.4182
 2596SOL     OW 7606   1.303   3.329   2.437  0.3744  0.0763 -0.0476
 2596SOL    HW1 7607   1.302   3.357   2.341  1.4505  1.9760  0.4413
 2596SOL    HW2 7608   1.252   3.395   2.491 -0.3118 -1.0362  0.6886
 2597SOL     OW 7609   3.299   3.375   2.935 -0.1474  0.8108  0.1326
 2597SOL    HW1 7610   3.238   3.311   2.983 -0.0851  0.1650 -0.6374
 2597SOL    HW2 7611   3.394   3.357   2.962 -0.0069 -0.2320 -0.9542
 2598SOL     OW 7612   2.375   3.426   3.554  0.1390 -0.3475  0.4513
 2598SOL    HW1 7613   2.288   3.379   3.541  0.9979 -2.2871  1.3596
 2598SOL    HW2 7614   2.358   3.524   3.563 -1.6522 -0.2588 -2.3082
 2599SOL     OW 7615   4.871   1.030   1.702 -0.6028 -0.1467  0.5294
 2599SOL    HW1 7616   4.885   1.090   1.623 -0.7757  0.7700  1.1788
 2599SOL    HW2 7617   4.784   0.981   1.692 -0.7235  0.1219  0.2483
 2600SOL     OW 7618   4.229   4.326   1.375  0.2133  0.6442  0.0971
 2600SOL    HW1 7619   4.287   4.269   1.433  0.0323  1.4023  1.0631
 2600SOL    HW2 7620   4.198   4.406   1.428 -0.3837  1.0880 -0.8965
 2601SOL     OW 7621   0.750   3.922   1.062  0.0045  0.0429 -0.1192
 2601SOL    HW1 7622   0.792   3.993   1.119  1.5659  0.3056 -1.5033
 2601SOL    HW2 7623   0.767   3.943   0.966 -0.1562 -1.8244 -0.5964
 2602SOL     OW 7624   3.015   3.451   4.945  0.1022 -0.2297 -0.4266
 2602SOL    HW1 7625   3.094   3.493   4.899 -0.4423 -0.2486 -1.3965
 2602SOL    HW2 7626   3.013   3.482   5.040 -0.3534  2.0979 -1.1274
 2603SOL     OW 7627   1.375   3.412   2.133  0.3797 -0.2357  0.7606
 2603SOL    HW1 7628   1.370   3.497   2.184  0.3266 -0.1982  0.6946
 2603SOL    HW2 7629   1.431   3.425   2.051 -1.3136  0.3339 -0.3682
 2604SOL     OW 7630   4.341   3.889   0.326  0.6355 -0.1073  0.0681
 2604SOL    HW1 7631   4.287   3.944   0.390 -1.2491 -0.3451 -1.2459
 2604SOL    HW2 7632   4.345   3.934   0.237 -3.0877 -2.9699 -1.8479
 2605SOL     OW 7633   4.110   1.647   1.050 -0.1103 -1.0836 -0.0099
 2605SOL    HW1 7634   4.071   1.594   1.126 -1.4620 -0.3242 -0.1505
 2605SOL    HW2 7635   4.050   1.724   1.028  1.7745  0.4984  0.1341
 2606SOL     OW 7636   1.659   3.465   2.458  0.5396  0.5627  0.0200
 2606SOL    HW1 7637   1.736   3.439   2.516  0.5002  0.5649  0.0733
 2606SOL    HW2 7638   1.610   3.541   2.500  0.2935  0.3247  0.1660
 2607SOL     OW 7639   0.641   2.269   2.644 -0.6243  0.2374  0.3263
 2607SOL    HW1 7640   0.644   2.275   2.544 -1.6162 -0.0304  0.2669
 2607SOL    HW2 7641   0.727   2.301   2.682 -0.7703  1.8116 -0.5567
 2608SOL     OW 7642   2.406   2.296   1.914 -0.3540  0.1216  0.9247
 2608SOL    HW1 7643   2.436   2.390   1.900  0.4397 -0.5693 -3.1949
 2608SOL    HW2 7644   2.448   2.260   1.998  2.6512  2.1947  0.4699
 2609SOL     OW 7645   2.749   3.516   0.464 -0.4902  0.2575 -0.0575
 2609SOL    HW1 7646   2.743   3.616   0.475 -0.5435  0.5732 -2.4635
 2609SOL    HW2 7647   2.844   3.488   0.474 -0.3868  0.6188  0.0229
 2610SOL     OW 7648   2.564   2.064   3.495  0.1501 -0.0172  0.0263
 2610SOL    HW1 7649   2.560   2.162   3.517  1.0139  0.2720 -1.0065
 2610SOL    HW2 7650   2.634   2.049   3.425  0.6132 -1.4943  0.7599
 2611SOL     OW 7651   3.915   2.691   3.262 -0.4268  0.1739  0.6398
 2611SOL    HW1 7652   3.933   2.760   3.332  0.4397  0.8961 -0.2546
 2611SOL    HW2 7653   3.824   2.705   3.224  0.2551  1.7818 -0.5234
 2612SOL     OW 7654   2.341   1.599   3.456 -0.4327 -0.0126 -0.5309
 2612SOL    HW1 7655   2.328   1.691   3.494 -2.7333 -0.3390 -0.3898
 2612SOL    HW2 7656   2.252   1.558   3.436  0.5810 -1.7075 -1.8786
 2613SOL     OW 7657   3.489   4.038   2.127 -0.8601 -0.1329  0.2564
 2613SOL    HW1 7658   3.558   3.973   2.094  0.3138  1.5171 -0.7060
 2613SOL    HW2 7659   3.487   4.037   2.227 -0.6698 -1.4308  0.2650
 2614SOL     OW 7660   4.368   0.963   1.394  0.5519  0.0161 -0.1588
 2614SOL    HW1 7661   4.461   0.929   1.404  0.5075 -0.6130 -1.5724
 2614SOL    HW2 7662   4.348   0.975   1.297 -0.7603  0.3854  0.1399
 2615SOL     OW 7663   2.192   4.414   1.893  0.0423  0.3352 -0.5396
 2615SOL    HW1 7664   2.280   4.370   1.877 -0.4376 -1.2835  0.9119
 2615SOL    HW2 7665   2.172   4.413   1.991 -2.6199 -1.4923 -1.0059
 2616SOL     OW 7666   2.726   2.668   3.471  0.6481 -0.5063  0.1208
 2616SOL    HW1 7667   2.727   2.612   3.553  0.3352 -1.4505 -0.5025
 2616SOL    HW2 7668   2.770   2.619   3.396 -0.6347 -0.4066 -0.7379
 2617SOL     OW 7669   2.763   1.944   3.680 -0.0401 -0.1440 -0.2784
 2617SOL    HW1 7670   2.674   1.958   3.637  0.2587 -1.6861 -1.4441
 2617SOL    HW2 7671   2.825   1.901   3.616  1.4975  0.6819  0.6056
 2618SOL     OW 7672   3.381   0.958   1.939  0.0160 -0.3599  0.1894
 2618SOL    HW1 7673   3.442   0.969   2.017  1.3192 -0.4789 -0.7782
 2618SOL    HW2 7674   3.305   1.023   1.946  1.1106  0.9084  0.6216
 2619SOL     OW 7675   4.128   1.512   2.730  0.2654 -0.1960 -0.3965
 2619SOL    HW1 7676   4.183   1.487   2.650 -0.1355 -0.7315 -0.5144
 2619SOL    HW2 7677   4.131   1.437   2.796  2.1153  0.9887  0.9453
 2620SOL     OW 7678   2.917   1.427   2.429 -0.1729  0.2086 -0.0751
 2620SOL    HW1 7679   2.852   1.397   2.498 -1.6579 -1.6315 -2.1328
 2620SOL    HW2 7680   2.930   1.526   2.436 -3.6088  0.7575  0.1295
 2621SOL     OW 7681   3.331   2.857   2.022 -0.0667  0.5457  0.1270
 2621SOL    HW1 7682   3.244   2.906   2.033  1.4014  3.2549  0.6516
 2621SOL    HW2 7683   3.407   2.922   2.031  2.0088 -1.1337 -3.2932
 2622SOL     OW 7684   3.375   2.151   3.616  0.1611  0.1887 -0.2606
 2622SOL    HW1 7685   3.429   2.123   3.695 -2.0658 -2.4699  0.4370
 2622SOL    HW2 7686   3.291   2.098   3.611 -0.7719  1.6848 -3.3107
 2623SOL     OW 7687   2.579   4.205   4.482 -0.4928 -0.3080 -1.0986
 2623SOL    HW1 7688   2.638   4.140   4.531 -0.0328  0.7809 -0.1490
 2623SOL    HW2 7689   2.571   4.178   4.386 -0.0157 -1.5451 -0.8077
 2624SOL     OW 7690   2.983   0.936   0.666 -0.9114 -0.5403  1.0130
 2624SOL    HW1 7691   3.006   0.928   0.763 -0.6143  1.1726  1.1112
 2624SOL    HW2 7692   2.910   1.004   0.655  0.1309  0.4265 -0.1005
 2625SOL     OW 7693   1.642   3.114   3.786  0.2411 -0.4773 -0.1543
 2625SOL    HW1 7694   1.564   3.061   3.820 -0.7223  1.2051  0.3752
 2625SOL    HW2 7695   1.636   3.122   3.686  0.1633 -1.0134 -0.1923
 2626SOL     OW 7696   2.374   0.127   4.785  0.5700 -0.6035 -0.1386
 2626SOL    HW1 7697   2.463   0.114   4.828  1.0367 -1.5739 -1.3065
 2626SOL    HW2 7698   2.357   0.051   4.722 -1.1280 -0.4736  0.1271
 2627SOL     OW 7699   3.989   3.746   3.786  0.4706  0.0133  0.1031
 2627SOL    HW1 7700   4.051   3.779   3.716 -0.0642  0.5843 -0.1111
 2627SOL    HW2 7701   3.973   3.818   3.853 -0.5948  0.1547 -0.2876
 2628SOL     OW 7702   3.366   2.373   3.038  0.2999  0.4161  0.9934
 2628SOL    HW1 7703   3.303   2.394   3.114 -1.3790  1.3687 -0.5916
 2628SOL    HW2 7704   3.354   2.277   3.012 -0.0695  0.4308  1.0933
 2629SOL     OW 7705   4.070   4.613   2.142 -0.2600 -0.5581  0.6128
 2629SOL    HW1 7706   4.060   4.709   2.168 -2.7485 -1.2426  2.6326
 2629SOL    HW2 7707   4.066   4.605   2.043 -1.5916  1.3192  0.4617
 2630SOL     OW 7708   2.243   2.812   3.473  0.1685 -0.2874 -0.4313
 2630SOL    HW1 7709   2.254   2.858   3.386  1.3930  1.4651  0.6045
 2630SOL    HW2 7710   2.148   2.779   3.481 -1.0608  2.8283 -0.8883
 2631SOL     OW 7711   3.145   3.261   1.262 -0.1501  0.0639 -0.2153
 2631SOL    HW1 7712   3.085   3.338   1.239 -1.5595 -0.4278  1.6027
 2631SOL    HW2 7713   3.240   3.286   1.242 -0.5499  2.3527  0.4411
 2632SOL     OW 7714   2.582   2.694   1.441 -0.0028 -0.0060 -0.3980
 2632SOL    HW1 7715   2.579   2.597   1.466 -0.6754 -0.0864 -0.7637
 2632SOL    HW2 7716   2.634   2.745   1.510 -0.5285 -0.4642  0.3468
 2633SOL     OW 7717   3.028   3.388   1.604  0.5865  0.1703  0.2806
 2633SOL    HW1 7718   3.024   3.330   1.685 -0.4255 -0.4145 -0.1663
 2633SOL    HW2 7719   2.945   3.375   1.550  1.8495 -0.5176 -1.5824
 2634SOL     OW 7720   2.020   2.727   4.661 -0.5510  0.3329  0.4949
 2634SOL    HW1 7721   1.945   2.701   4.722 -1.9006  2.2325 -0.2691
 2634SOL    HW2 7722   1.989   2.723   4.566  0.4646  0.6839  0.1331
 2635SOL     OW 7723   2.196   2.292   4.138  0.3762  0.0532  0.5137
 2635SOL    HW1 7724   2.164   2.360   4.205 -1.5290 -0.4632  0.1740
 2635SOL    HW2 7725   2.185   2.200   4.176 -0.6208 -0.2388 -0.4329
 2636SOL     OW 7726   3.886   1.457   2.548 -0.1224 -0.3062 -0.1525
 2636SOL    HW1 7727   3.939   1.533   2.586 -0.9239 -0.0763  0.5310
 2636SOL    HW2 7728   3.903   1.374   2.601 -1.8862  0.2036  1.3205
 2637SOL     OW 7729   4.498   4.718   2.080  0.4876 -0.0071  0.0751
 2637SOL    HW1 7730   4.523   4.677   1.993 -0.0986  0.5348 -0.3553
 2637SOL    HW2 7731   4.538   4.809   2.087 -1.0498  0.7356 -0.4781
 2638SOL     OW 7732   2.141   2.282   3.143 -0.0780  0.0661  0.8263
 2638SOL    HW1 7733   2.091   2.328   3.216 -2.6971 -0.5879 -0.4610
 2638SOL    HW2 7734   2.099   2.303   3.055  2.2208 -0.1943 -0.4144
 2639SOL     OW 7735   3.321   3.448   2.225 -0.1717 -0.1548 -0.1145
 2639SOL    HW1 7736   3.311   3.355   2.192 -0.1566 -0.5942  1.0729
 2639SOL    HW2 7737   3.364   3.447   2.315 -2.7581  0.7761  1.2329
 2640SOL     OW 7738   2.855   1.933   2.813  0.0116  0.3739  0.3659
 2640SOL    HW1 7739   2.840   1.897   2.905 -0.2672 -0.7181 -0.0881
 2640SOL    HW2 7740   2.796   1.884   2.748  1.0824  0.2679 -0.5679
 2641SOL     OW 7741   4.170   1.226   3.364 -0.4609 -1.0274 -0.2742
 2641SOL    HW1 7742   4.103   1.290   3.326  0.2919 -0.1248 -0.1183
 2641SOL    HW2 7743   4.260   1.271   3.369 -0.3776 -1.3350  1.9128
 2642SOL     OW 7744   3.235   3.113   2.779 -0.1406 -0.1356 -0.3113
 2642SOL    HW1 7745   3.330   3.136   2.757 -0.2616  0.2481 -0.4407
 2642SOL    HW2 7746   3.174   3.157   2.714 -0.3937 -0.6829 -0.4537
 2643SOL     OW 7747   2.373   4.200   3.811  0.1008 -0.0333  0.4349
 2643SOL    HW1 7748   2.461   4.155   3.792  0.0044  0.1140 -0.3647
 2643SOL    HW2 7749   2.330   4.155   3.889  0.7555 -0.2909  0.6603
 2644SOL     OW 7750   3.384   1.026   3.081 -0.6766  0.0624 -0.0054
 2644SOL    HW1 7751   3.441   0.944   3.073  0.6727  1.0687 -1.2736
 2644SOL    HW2 7752   3.422   1.098   3.023 -3.0347  0.9215 -0.5817
 2645SOL     OW 7753   2.452   1.863   2.318 -0.2666 -0.1750  0.1103
 2645SOL    HW1 7754   2.448   1.800   2.395 -0.6971  0.0739  0.3010
 2645SOL    HW2 7755   2.530   1.842   2.260  0.6277  0.2386  1.1473
 2646SOL     OW 7756   3.273   2.102   1.369 -0.3723  0.3807  0.0570
 2646SOL    HW1 7757   3.321   2.170   1.314 -1.4420  0.9464 -0.2013
 2646SOL    HW2 7758   3.321   2.015   1.365  0.6281  0.9355 -0.1826
 2647SOL     OW 7759   2.661   2.369   1.227 -0.5163  0.1039  0.3940
 2647SOL    HW1 7760   2.639   2.287   1.174  1.3262  0.9365 -1.8213
 2647SOL    HW2 7761   2.759   2.389   1.220 -0.5431  1.3905  2.5724
 2648SOL     OW 7762   3.216   2.267   4.800 -0.5123 -0.4420 -0.4828
 2648SOL    HW1 7763   3.127   2.249   4.842 -0.2277 -0.1567  0.2761
 2648SOL    HW2 7764   3.220   2.362   4.770 -0.5783 -0.5423 -0.8088
 2649SOL     OW 7765   0.910   0.193   3.308  0.7187 -0.3281 -0.0617
 2649SOL    HW1 7766   0.850   0.113   3.307  1.7472 -1.2213  1.8489
 2649SOL    HW2 7767   0.950   0.207   3.217  0.9768 -2.3956 -0.3131
 2650SOL     OW 7768   1.752   2.118   3.486  0.9306 -0.0966  0.2324
 2650SOL    HW1 7769   1.725   2.151   3.396  2.6237 -0.0478 -0.2913
 2650SOL    HW2 7770   1.675   2.128   3.550 -0.2297  0.0386 -1.1410
 2651SOL     OW 7771   1.003   4.661   4.600 -0.8257  0.1090 -0.5050
 2651SOL    HW1 7772   0.928   4.660   4.667  1.1511  0.8763  1.8903
 2651SOL    HW2 7773   0.968   4.692   4.512 -3.5850 -0.9913  0.0843
 2652SOL     OW 7774   2.127   3.170   4.397 -0.0862  0.0937 -0.6226
 2652SOL    HW1 7775   2.206   3.108   4.401  0.3855  0.6208 -1.4837
 2652SOL    HW2 7776   2.127   3.229   4.478 -1.1136 -1.6826  0.7434
 2653SOL     OW 7777   2.750   2.671   5.027  0.1264  0.0208 -0.3351
 2653SOL    HW1 7778   2.785   2.752   5.076  0.9448  0.4419 -1.5626
 2653SOL    HW2 7779   2.657   2.690   4.995  0.2832  0.4707 -0.5486
 2654SOL     OW 7780   4.002   1.704   4.776  0.0087  0.1674  0.6468
 2654SOL    HW1 7781   3.982   1.796   4.808 -2.0365 -0.0975  0.2795
 2654SOL    HW2 7782   4.007   1.642   4.854 -0.8704  0.2290  0.7702
 2655SOL     OW 7783   1.380   0.027   1.077 -0.3846  0.6014 -0.1222
 2655SOL    HW1 7784   1.411  -0.030   1.001  0.7544  1.1970 -0.1210
 2655SOL    HW2 7785   1.338  -0.031   1.148  1.2152 -0.3112  0.1158
 2656SOL     OW 7786   0.608   1.656   4.396  0.2335 -0.1442  0.0620
 2656SOL    HW1 7787   0.610   1.594   4.317 -2.1104 -0.7455  0.4056
 2656SOL    HW2 7788   0.616   1.750   4.364  1.4982 -0.4640 -0.6597
 2657SOL     OW 7789   1.755   2.889   1.174 -0.5392 -0.0237  0.1736
 2657SOL    HW1 7790   1.710   2.950   1.109 -1.1021 -0.9239 -0.2965
 2657SOL    HW2 7791   1.850   2.917   1.186 -0.4729  0.2503 -0.9242
 2658SOL     OW 7792   3.794   0.925   4.220 -0.3960  0.2786 -0.2015
 2658SOL    HW1 7793   3.791   0.850   4.153 -0.2608  1.8569 -2.0659
 2658SOL    HW2 7794   3.732   0.998   4.191 -0.2198  1.0812  1.3481
 2659SOL     OW 7795   3.641   3.615   3.075  0.0395  0.2031 -0.3111
 2659SOL    HW1 7796   3.671   3.582   3.164 -1.6553  0.2560  0.3278
 2659SOL    HW2 7797   3.693   3.697   3.051 -0.9592  1.5168  1.7094
 2660SOL     OW 7798   1.520   4.054   4.400 -0.3504 -0.3420 -0.2797
 2660SOL    HW1 7799   1.442   4.006   4.361 -0.8043 -0.3564  0.6078
 2660SOL    HW2 7800   1.520   4.149   4.368  0.7070 -0.9574 -2.2493
 2661SOL     OW 7801   0.550   2.352   4.230 -0.4216  0.1202  0.1956
 2661SOL    HW1 7802   0.626   2.334   4.167 -0.9822  3.0398 -1.5024
 2661SOL    HW2 7803   0.495   2.270   4.240  0.6025 -0.8955 -1.8887
 2662SOL     OW 7804   1.291   3.292   3.389  0.4290 -0.1392  0.4376
 2662SOL    HW1 7805   1.237   3.376   3.398  0.0125 -0.3890  0.2805
 2662SOL    HW2 7806   1.362   3.291   3.459  0.5443  0.4253  0.3310
 2663SOL     OW 7807   2.239   2.637   3.911  0.3757  0.2682  0.0439
 2663SOL    HW1 7808   2.243   2.538   3.899  0.8369  0.0406  1.8474
 2663SOL    HW2 7809   2.171   2.659   3.981 -1.8527  1.4646 -2.3140
 2664SOL     OW 7810   1.651   3.127   0.714  0.0962  1.0160  0.2162
 2664SOL    HW1 7811   1.730   3.086   0.668 -0.2104  0.1305  0.4564
 2664SOL    HW2 7812   1.572   3.123   0.653 -0.4472 -0.6417  0.9606
 2665SOL     OW 7813   2.306   4.374   4.308 -0.1516  0.3077  0.1203
 2665SOL    HW1 7814   2.276   4.460   4.348  0.8627 -0.3248  2.4224
 2665SOL    HW2 7815   2.227   4.322   4.276 -0.7781  2.0049 -1.2192
 2666SOL     OW 7816   2.419   3.574   3.901 -0.3889 -0.2414  0.2860
 2666SOL    HW1 7817   2.423   3.623   3.814  0.2637 -0.3471  0.2472
 2666SOL    HW2 7818   2.334   3.522   3.907 -0.2393 -0.5865 -0.4847
 2667SOL     OW 7819   1.727   2.771   0.222  0.6825 -0.3864 -0.4971
 2667SOL    HW1 7820   1.695   2.718   0.301 -0.5057 -1.8955 -1.9060
 2667SOL    HW2 7821   1.745   2.865   0.250 -0.5132 -0.6629  1.3898
 2668SOL     OW 7822   2.730   2.723   4.023 -0.3462  0.2159  0.6320
 2668SOL    HW1 7823   2.654   2.677   3.976  0.1019  0.4811 -0.3752
 2668SOL    HW2 7824   2.772   2.660   4.088 -0.5228 -0.3984  0.1632
 2669SOL     OW 7825   2.716   0.683   4.240  0.1849  0.5679  0.2833
 2669SOL    HW1 7826   2.778   0.730   4.177 -1.4616  1.2664 -0.8944
 2669SOL    HW2 7827   2.719   0.585   4.222 -0.5641  0.7973 -1.2074
 2670SOL     OW 7828   0.785   2.639   0.237  0.2662 -0.2322  0.3209
 2670SOL    HW1 7829   0.780   2.635   0.337 -2.0805 -0.5880  0.2432
 2670SOL    HW2 7830   0.695   2.617   0.198  0.8786  0.8391 -1.8482
 2671SOL     OW 7831   0.212   2.918   3.992  0.5064  0.2271  0.0041
 2671SOL    HW1 7832   0.149   2.940   4.067  0.7379  1.3185 -0.1080
 2671SOL    HW2 7833   0.163   2.868   3.921  0.3643 -1.1330  1.0226
 2672SOL     OW 7834   3.004   3.946   2.405  0.2354  0.1760  0.2397
 2672SOL    HW1 7835   2.968   3.985   2.320 -0.3793  1.4416  1.0414
 2672SOL    HW2 7836   3.043   3.856   2.387 -0.7172  0.0225 -1.2100
 2673SOL     OW 7837   2.198   3.298   4.170  0.0860 -0.1428  0.3053
 2673SOL    HW1 7838   2.284   3.273   4.127  0.4621  1.1276  0.2868
 2673SOL    HW2 7839   2.178   3.234   4.245  0.3085 -1.2944 -0.5933
 2674SOL     OW 7840   4.026   3.060   0.105 -0.0245  0.5188 -0.4553
 2674SOL    HW1 7841   4.072   3.071   0.193 -0.3833 -0.5924 -0.1109
 2674SOL    HW2 7842   3.968   2.978   0.108  1.5035 -0.7312 -2.3402
 2675SOL     OW 7843   2.130   2.224   0.459 -0.4695 -0.3345  0.5361
 2675SOL    HW1 7844   2.105   2.181   0.372  1.2935 -0.9550  0.2926
 2675SOL    HW2 7845   2.140   2.322   0.446  1.9364 -0.6523 -0.5722
 2676SOL     OW 7846   2.847   2.247   0.667  0.0792 -0.0695 -0.0340
 2676SOL    HW1 7847   2.909   2.294   0.604  0.5093  0.0497  0.4751
 2676SOL    HW2 7848   2.753   2.280   0.652  0.4364  1.3381  0.6456
 2677SOL     OW 7849   2.163   1.269   4.100 -0.2938  0.2397 -0.2898
 2677SOL    HW1 7850   2.233   1.327   4.059 -0.0224  0.1061 -0.0184
 2677SOL    HW2 7851   2.074   1.292   4.061 -0.1616  0.7126 -0.3201
 2678SOL     OW 7852   2.459   4.568   0.846  0.3878 -0.0295  0.6328
 2678SOL    HW1 7853   2.504   4.639   0.900  1.7550 -0.9489  0.7565
 2678SOL    HW2 7854   2.528   4.505   0.810 -0.6292 -0.3051 -0.9356
 2679SOL     OW 7855   3.605   1.923   4.219 -0.6247  0.6371 -0.1298
 2679SOL    HW1 7856   3.584   1.865   4.140 -1.0491  2.0094 -1.0552
 2679SOL    HW2 7857   3.520   1.961   4.255 -0.2828  1.3182 -0.0435
 2680SOL     OW 7858   1.386   0.431   3.847  0.1894  0.4018  0.3329
 2680SOL    HW1 7859   1.388   0.420   3.946  1.8802  0.3361  0.3245
 2680SOL    HW2 7860   1.294   0.413   3.813 -0.2646 -0.2165  1.8139
 2681SOL     OW 7861   3.220   4.045   2.051  0.0841 -0.4926  0.0492
 2681SOL    HW1 7862   3.318   4.055   2.065  0.1449  1.0442 -1.1098
 2681SOL    HW2 7863   3.203   4.005   1.961 -0.3494 -0.9292  0.3223
 2682SOL     OW 7864   3.212   3.693   2.165  0.7742 -0.3314 -0.3906
 2682SOL    HW1 7865   3.238   3.764   2.100  0.5581  0.6633  0.5861
 2682SOL    HW2 7866   3.269   3.612   2.150  2.1515  0.6154 -0.4565
 2683SOL     OW 7867   4.502   2.804   3.470 -0.3411  0.3345 -0.8570
 2683SOL    HW1 7868   4.476   2.899   3.456 -0.5828  0.5406  0.8190
 2683SOL    HW2 7869   4.420   2.747   3.478 -0.1983 -0.0215 -1.7693
 2684SOL     OW 7870   1.417   3.674   0.109  0.4222  0.2380  0.1145
 2684SOL    HW1 7871   1.407   3.622   0.024  0.5734  1.5917 -0.7435
 2684SOL    HW2 7872   1.497   3.639   0.159  0.7301 -0.1304 -0.6092
 2685SOL     OW 7873   2.384   0.297   4.541 -0.7805 -0.0021  0.2766
 2685SOL    HW1 7874   2.379   0.226   4.611  2.3665 -0.5224  0.1497
 2685SOL    HW2 7875   2.372   0.255   4.451 -0.1731 -0.1883  0.2758
 2686SOL     OW 7876   3.423   2.406   0.101 -0.0616  0.3973 -0.2646
 2686SOL    HW1 7877   3.359   2.331   0.086 -0.3809  0.5387  0.3755
 2686SOL    HW2 7878   3.483   2.384   0.178  0.0750  0.6433 -0.2996
 2687SOL     OW 7879   2.067   2.982   3.243 -0.1336 -0.0082  0.1980
 2687SOL    HW1 7880   2.150   3.003   3.191 -0.0607  0.1681  0.3845
 2687SOL    HW2 7881   2.065   3.037   3.326 -0.4883  0.0592  0.1469
 2688SOL     OW 7882   2.517   3.258   4.494 -0.2852 -0.0674  0.4794
 2688SOL    HW1 7883   2.485   3.344   4.456  0.8688  0.2442  0.1628
 2688SOL    HW2 7884   2.532   3.192   4.420 -1.2674 -0.5867  0.7280
 2689SOL     OW 7885   2.360   1.951   4.559 -0.1992 -0.5758 -0.6784
 2689SOL    HW1 7886   2.401   2.039   4.583 -2.4929  0.0769  1.1876
 2689SOL    HW2 7887   2.340   1.949   4.461  0.5484  0.6802 -0.8762
 2690SOL     OW 7888   3.038   3.048   3.276 -0.1988  0.5413 -0.1440
 2690SOL    HW1 7889   2.991   2.984   3.338 -0.6174  0.5654 -0.4286
 2690SOL    HW2 7890   3.132   3.060   3.306  0.1348 -0.8409 -0.5327
 2691SOL     OW 7891   1.514   3.964   0.624 -0.2359 -0.2971 -0.0291
 2691SOL    HW1 7892   1.553   3.959   0.532  0.5930 -0.0060  0.3014
 2691SOL    HW2 7893   1.544   4.047   0.669  0.3283 -1.0085  0.9411
 2692SOL     OW 7894   1.625   1.323   4.729  0.4018  0.1533 -0.3965
 2692SOL    HW1 7895   1.664   1.280   4.648  0.0852  0.8158 -0.9119
 2692SOL    HW2 7896   1.557   1.391   4.701 -0.7606 -0.6216  0.4650
 2693SOL     OW 7897   2.525   4.377   4.147  0.6800  0.0776 -0.7443
 2693SOL    HW1 7898   2.462   4.373   4.224  0.6365  1.4825 -0.6963
 2693SOL    HW2 7899   2.554   4.284   4.124 -0.8748 -0.5402 -0.3447
 2694SOL     OW 7900   2.216   2.164   0.160  0.2546  0.1787  0.3281
 2694SOL    HW1 7901   2.228   2.065   0.162 -0.8524  0.0263  0.3685
 2694SOL    HW2 7902   2.232   2.198   0.068  1.0691  0.0325  0.4077
 2695SOL     OW 7903   1.252   3.031   4.955  0.3497 -0.5338  0.0695
 2695SOL    HW1 7904   1.292   3.089   4.884 -1.3925  2.3526  1.2498
 2695SOL    HW2 7905   1.284   3.061   5.045 -0.0301 -1.9566  0.7213
 2696SOL     OW 7906   0.623   1.953   5.002 -0.5669 -0.0609 -0.6502
 2696SOL    HW1 7907   0.722   1.951   4.988 -0.4431  0.5915  0.0429
 2696SOL    HW2 7908   0.587   1.860   5.000  0.4014 -0.5330  1.3236
 2697SOL     OW 7909   3.534   2.789   4.143  0.0981  0.1752 -0.1317
 2697SOL    HW1 7910   3.453   2.819   4.093  0.5539  3.0989  0.6918
 2697SOL    HW2 7911   3.508   2.757   4.233 -0.2170  0.3828 -0.1477
 2698SOL     OW 7912   2.211   2.827   4.281 -0.0517 -0.9469 -0.0057
 2698SOL    HW1 7913   2.254   2.885   4.349 -0.0601 -0.7858 -0.1350
 2698SOL    HW2 7914   2.139   2.773   4.324 -1.8147  1.0045 -0.3170
 2699SOL     OW 7915   1.035   1.153   3.526  0.0071 -0.1744  0.0896
 2699SOL    HW1 7916   0.998   1.232   3.475  1.1400  0.2656 -0.0753
 2699SOL    HW2 7917   0.992   1.149   3.616 -2.1771 -1.0754 -0.9165
 2700SOL     OW 7918   2.488   3.118   4.716 -0.3175  0.2868 -0.2359
 2700SOL    HW1 7919   2.410   3.056   4.724  0.6517 -1.3017 -2.1562
 2700SOL    HW2 7920   2.483   3.166   4.628  1.2221 -0.4548 -0.7667
 2701SOL     OW 7921   2.123   0.894   5.028 -0.3164 -0.4576  0.3619
 2701SOL    HW1 7922   2.172   0.981   5.034 -0.6048 -0.4207  2.9938
 2701SOL    HW2 7923   2.147   0.836   5.105 -3.0601 -1.1541  0.7959
 2702SOL     OW 7924   0.032   1.519   4.203  0.3019 -0.4323 -0.1282
 2702SOL    HW1 7925   0.002   1.450   4.268  0.4801 -1.2127 -0.8563
 2702SOL    HW2 7926   0.124   1.550   4.228  1.2131 -2.1801 -1.0911
 2703SOL     OW 7927   2.884   2.906   3.459  0.0454  0.3122 -0.2094
 2703SOL    HW1 7928   2.928   2.940   3.542 -0.6353  1.8827 -0.4643
 2703SOL    HW2 7929   2.824   2.830   3.482 -0.0115  0.6270  0.7155
 2704SOL     OW 7930   1.459   2.082   3.510 -0.0012  0.2838  0.1721
 2704SOL    HW1 7931   1.464   2.022   3.590 -0.5000 -0.3890 -0.2949
 2704SOL    HW2 7932   1.413   2.167   3.536 -0.3214 -0.0015  0.5632
 2705SOL     OW 7933   2.834   3.918   4.954 -0.0103 -0.1339 -0.3092
 2705SOL    HW1 7934   2.813   3.836   5.006 -1.2240  1.7273  2.3349
 2705SOL    HW2 7935   2.783   3.917   4.868  0.4850 -2.3514 -0.6508
 2706SOL     OW 7936   1.076   1.257   4.331 -0.0848 -0.1978 -0.0143
 2706SOL    HW1 7937   1.150   1.323   4.339  0.2437 -0.4342 -0.9394
 2706SOL    HW2 7938   1.083   1.191   4.406  0.9982 -0.5565 -0.4033
 2707SOL     OW 7939   1.348   2.126   4.264 -0.1607 -0.3752 -0.3531
 2707SOL    HW1 7940   1.382   2.203   4.210  1.3002 -1.5392 -1.1465
 2707SOL    HW2 7941   1.280   2.159   4.330 -0.9836  1.2845 -1.9499
 2708SOL     OW 7942   2.429   4.305   3.129  0.0925  0.3234 -0.8254
 2708SOL    HW1 7943   2.463   4.228   3.184  1.0579  0.3045 -1.4237
 2708SOL    HW2 7944   2.494   4.380   3.134 -0.6028  0.9261 -0.6530
 2709SOL     OW 7945   3.325   0.863   1.422  0.2717 -0.4483 -0.0183
 2709SOL    HW1 7946   3.415   0.882   1.459 -0.2110 -2.3302  2.3659
 2709SOL    HW2 7947   3.256   0.868   1.494 -1.4994  0.4095 -1.6570
 2710SOL     OW 7948   4.311   1.924   4.766  0.7131 -0.4378 -0.9631
 2710SOL    HW1 7949   4.286   1.832   4.737  0.7192  0.0097 -2.4682
 2710SOL    HW2 7950   4.332   1.980   4.685  0.5529  0.9273 -0.0845
 2711SOL     OW 7951   2.990   2.195   4.555  0.0413 -0.3528  0.2792
 2711SOL    HW1 7952   3.050   2.270   4.528  0.7339 -0.7211  0.7725
 2711SOL    HW2 7953   3.038   2.134   4.618  0.0256 -2.0737 -1.2886
 2712SOL     OW 7954   3.807   1.275   0.517 -0.2824  0.2028 -0.5234
 2712SOL    HW1 7955   3.851   1.241   0.599 -2.1732 -2.4804 -0.4849
 2712SOL    HW2 7956   3.778   1.198   0.460  0.0606  1.9450 -3.2578
 2713SOL     OW 7957   2.791   3.681   4.186  0.2046  0.0081  0.1396
 2713SOL    HW1 7958   2.722   3.721   4.126 -1.2772 -1.6906  0.6155
 2713SOL    HW2 7959   2.847   3.617   4.134  0.3772  0.1889  0.1014
 2714SOL     OW 7960   2.280   3.958   4.519 -0.0860  0.4589  0.2733
 2714SOL    HW1 7961   2.313   3.960   4.613 -0.5916  0.4802  0.4524
 2714SOL    HW2 7962   2.246   4.049   4.494 -1.3959  0.0883  0.5989
 2715SOL     OW 7963   0.107   1.863   3.290 -0.0867 -0.3824 -0.5130
 2715SOL    HW1 7964   0.158   1.853   3.205  0.1992  0.0144 -0.3955
 2715SOL    HW2 7965   0.009   1.868   3.270  0.0091  0.1829 -0.8658
 2716SOL     OW 7966   2.641   1.694   1.002 -0.4317 -0.0031  0.0844
 2716SOL    HW1 7967   2.562   1.754   0.999  0.8697  1.7661 -2.1546
 2716SOL    HW2 7968   2.720   1.740   0.961  0.8902 -2.8867 -0.9022
 2717SOL     OW 7969   3.954   3.093   2.119  0.4494  0.0372 -0.0542
 2717SOL    HW1 7970   3.984   3.178   2.076  1.1515 -0.7065 -1.0894
 2717SOL    HW2 7971   4.013   3.075   2.198  1.5026 -0.3945 -0.9057
 2718SOL     OW 7972   3.863   3.752   1.035  0.3882  0.1987 -0.0975
 2718SOL    HW1 7973   3.963   3.751   1.023  0.3316  0.7542 -0.6558
 2718SOL    HW2 7974   3.821   3.694   0.965  0.3747 -1.0807  0.9151
 2719SOL     OW 7975   1.861   3.653   2.723 -0.0695  0.6976 -0.2432
 2719SOL    HW1 7976   1.786   3.719   2.722  0.1287  0.9885  1.3413
 2719SOL    HW2 7977   1.832   3.568   2.678 -1.6101  0.5416  0.9617
 2720SOL     OW 7978   4.398   3.570   1.020 -0.2280  0.3942 -0.1567
 2720SOL    HW1 7979   4.491   3.559   1.055 -0.4643  0.0084  0.3808
 2720SOL    HW2 7980   4.345   3.487   1.041 -1.2199  1.3410  1.2568
 2721SOL     OW 7981   2.923   2.825   1.240 -0.1574  0.0414 -0.3497
 2721SOL    HW1 7982   2.957   2.891   1.173 -1.3332  1.3658  0.2819
 2721SOL    HW2 7983   2.874   2.875   1.312 -2.6307 -1.6708 -0.7601
 2722SOL     OW 7984   1.830   3.326   3.830  0.5297 -0.7863  0.0877
 2722SOL    HW1 7985   1.895   3.268   3.879  1.1854 -1.6403 -1.6971
 2722SOL    HW2 7986   1.738   3.290   3.842  0.7862 -1.4911 -0.0044
 2723SOL     OW 7987   2.244   3.213   0.618 -0.3523 -0.2380  0.0691
 2723SOL    HW1 7988   2.307   3.142   0.586  0.0051  0.0477  0.1276
 2723SOL    HW2 7989   2.230   3.203   0.716 -0.5520 -0.4187  0.0233
 2724SOL     OW 7990   3.221   1.747   4.109 -0.3707  0.0375  0.4810
 2724SOL    HW1 7991   3.256   1.819   4.050 -0.3579  0.0307  0.4803
 2724SOL    HW2 7992   3.277   1.665   4.100 -2.3304 -1.1645 -2.1206
 2725SOL     OW 7993   2.960   1.840   3.533  0.0332  0.2433  0.9846
 2725SOL    HW1 7994   3.003   1.755   3.564 -1.1387 -1.4505 -1.6848
 2725SOL    HW2 7995   2.984   1.857   3.437 -1.6182  1.6797  0.7730
 2726SOL     OW 7996   3.267   2.885   0.320 -0.0891 -0.0173  0.5349
 2726SOL    HW1 7997   3.191   2.884   0.386 -0.8551  2.2645 -0.1978
 2726SOL    HW2 7998   3.270   2.798   0.271 -0.0758 -1.4361  2.8777
 2727SOL     OW 7999   2.267   2.674   4.778  0.1468  0.0869  0.5146
 2727SOL    HW1 8000   2.236   2.614   4.852 -0.8531  0.5856  0.5206
 2727SOL    HW2 8001   2.190   2.696   4.718  1.3393 -2.2305 -2.1202
 2728SOL     OW 8002   3.059   1.874   1.574 -0.1177  0.2315  0.5605
 2728SOL    HW1 8003   3.031   1.958   1.528  0.0952  0.3332  0.6173
 2728SOL    HW2 8004   3.052   1.885   1.673 -0.5823  0.0101  0.5532
 2729SOL     OW 8005   1.875   3.001   0.590  1.1502  0.1633 -0.0874
 2729SOL    HW1 8006   1.919   2.973   0.676 -2.7868 -1.2239  1.7260
 2729SOL    HW2 8007   1.894   2.933   0.520  0.2615 -1.5298  1.2390
 2730SOL     OW 8008   2.293   2.010   3.812  0.0598 -0.0898 -0.1252
 2730SOL    HW1 8009   2.335   2.082   3.756  1.5340 -0.4960  0.4153
 2730SOL    HW2 8010   2.213   2.047   3.859  0.2070  0.9172 -0.6308
 2731SOL     OW 8011   1.644   1.684   1.442 -0.0498 -0.1089  0.2912
 2731SOL    HW1 8012   1.583   1.616   1.401  1.9736  0.0104 -3.3436
 2731SOL    HW2 8013   1.733   1.642   1.460 -0.3464  0.3247  3.2455
 2732SOL     OW 8014   2.369   2.250   3.702 -0.0106  0.6588  0.1018
 2732SOL    HW1 8015   2.443   2.280   3.641  1.3745 -0.7161  1.0218
 2732SOL    HW2 8016   2.384   2.287   3.793 -0.5554  0.5144  0.2488
 2733SOL     OW 8017   4.063   2.144   0.978  0.2509  0.6766 -0.3412
 2733SOL    HW1 8018   4.060   2.240   0.950  0.8999  0.4481 -1.2643
 2733SOL    HW2 8019   4.151   2.104   0.950 -0.0545 -0.2172 -0.0736
 2734SOL     OW 8020   3.464   1.984   4.644  0.1665  0.4749 -0.1843
 2734SOL    HW1 8021   3.464   1.973   4.743  0.2706  0.5615 -0.1744
 2734SOL    HW2 8022   3.514   1.909   4.602  0.8943  0.9201 -0.1161
 2735SOL     OW 8023   3.420   1.051   0.435  0.2838  0.2174  0.4286
 2735SOL    HW1 8024   3.364   1.034   0.353  0.7524 -2.7232  0.5851
 2735SOL    HW2 8025   3.367   1.028   0.516  0.3808  1.4690  0.8519
 2736SOL     OW 8026   0.723   2.596   4.380 -0.0215  0.7886  0.0319
 2736SOL    HW1 8027   0.757   2.586   4.286  1.2518 -0.0565  0.5569
 2736SOL    HW2 8028   0.801   2.603   4.443 -0.8573  2.1298  0.9618
 2737SOL     OW 8029   2.361   1.976   0.719 -0.6268 -0.2133 -0.3930
 2737SOL    HW1 8030   2.441   1.996   0.663  1.0486 -0.1950  1.8541
 2737SOL    HW2 8031   2.318   2.061   0.747 -0.2125 -0.1302  0.0123
 2738SOL     OW 8032   1.924   2.989   4.500 -0.2911  0.2047  0.9035
 2738SOL    HW1 8033   1.937   2.890   4.501 -0.6646  0.0423 -1.7629
 2738SOL    HW2 8034   2.001   3.032   4.452 -1.5545  0.8640 -0.5956
 2739SOL     OW 8035   3.066   2.811   4.370  0.4652 -0.6424 -0.4448
 2739SOL    HW1 8036   3.071   2.849   4.277  0.9887  1.6353  0.4354
 2739SOL    HW2 8037   3.154   2.772   4.395  0.9890  0.6196 -0.2164
 2740SOL     OW 8038   1.083   4.318   2.972 -0.3310  0.0825 -0.7483
 2740SOL    HW1 8039   1.044   4.272   3.052 -0.3903 -0.5540 -1.1338
 2740SOL    HW2 8040   1.135   4.398   3.001 -2.3943  1.3180 -0.2348
 2741SOL     OW 8041   2.107   1.774   2.911 -0.1182 -0.1170 -0.2197
 2741SOL    HW1 8042   2.025   1.830   2.921  0.9145  1.3024  0.8205
 2741SOL    HW2 8043   2.125   1.726   2.997 -1.2718 -2.5339 -1.2592
 2742SOL     OW 8044   3.704   1.320   1.242  0.2320  0.1942  0.0556
 2742SOL    HW1 8045   3.715   1.418   1.257  0.9215  0.2757 -0.8910
 2742SOL    HW2 8046   3.635   1.284   1.306 -1.6215  1.6894 -0.9818
 2743SOL     OW 8047   3.938   3.371   3.506  0.1464  0.0811  0.2743
 2743SOL    HW1 8048   4.034   3.344   3.516 -0.2314 -1.5244 -0.1442
 2743SOL    HW2 8049   3.911   3.426   3.585  1.0081 -0.7312  1.1654
 2744SOL     OW 8050   2.862   4.071   0.707  0.1021  0.5323  0.3200
 2744SOL    HW1 8051   2.871   4.051   0.805 -2.2304  0.6222  0.6284
 2744SOL    HW2 8052   2.895   4.163   0.689  2.4690 -0.1968  0.5907
 2745SOL     OW 8053   3.662   2.121   4.032  0.5587  0.7363  0.2376
 2745SOL    HW1 8054   3.652   2.041   4.091 -0.9232  0.3254 -0.5479
 2745SOL    HW2 8055   3.630   2.202   4.081 -3.6057  0.0003 -0.8685
 2746SOL     OW 8056   1.968   3.866   2.379  0.9779  0.8939  0.1730
 2746SOL    HW1 8057   2.015   3.780   2.398 -1.4032 -0.3316  0.9109
 2746SOL    HW2 8058   1.883   3.848   2.329 -0.1422  2.6910  1.2868
 2747SOL     OW 8059   1.518   3.152   4.210  0.1113  0.2960  0.3335
 2747SOL    HW1 8060   1.600   3.167   4.155 -0.9395  0.1255 -1.3512
 2747SOL    HW2 8061   1.510   3.055   4.232  0.9633  0.4804  1.5220
 2748SOL     OW 8062   1.412   4.257   0.530  0.2673 -0.3623 -0.2332
 2748SOL    HW1 8063   1.359   4.272   0.447  1.1046 -1.7082 -1.0495
 2748SOL    HW2 8064   1.489   4.321   0.533 -0.7627  0.8819  0.4251
 2749SOL     OW 8065   3.925   0.363   1.591 -0.3465  0.4715 -0.2436
 2749SOL    HW1 8066   3.958   0.363   1.685  1.8497 -2.4160 -0.8699
 2749SOL    HW2 8067   3.872   0.280   1.574  1.8308 -0.6158 -2.2629
 2750SOL     OW 8068   1.883   1.130   5.036 -0.1872  0.1983  0.2480
 2750SOL    HW1 8069   1.829   1.205   5.074 -0.1021 -0.8209  2.5378
 2750SOL    HW2 8070   1.833   1.087   4.961 -0.3978  2.2439 -0.8450
 2751SOL     OW 8071   1.782   2.134   4.528  0.0929  0.1780 -0.3172
 2751SOL    HW1 8072   1.740   2.178   4.607  0.7531  1.1898 -0.4988
 2751SOL    HW2 8073   1.734   2.049   4.506 -1.9974  1.3794 -0.6457
 2752SOL     OW 8074   2.014   2.597   2.987  0.4963 -0.7745 -0.1552
 2752SOL    HW1 8075   2.008   2.622   3.083 -0.3883 -0.3499 -0.3110
 2752SOL    HW2 8076   1.995   2.500   2.976 -1.0811 -0.4999 -0.0626
 2753SOL     OW 8077   3.323   3.838   3.316  0.2782 -0.6709  0.0743
 2753SOL    HW1 8078   3.336   3.739   3.310  0.8179 -0.6138  0.2429
 2753SOL    HW2 8079   3.311   3.865   3.412  1.2336 -0.4467  0.1405
 2754SOL     OW 8080   2.315   2.976   4.469 -0.0112  0.0576  0.0768
 2754SOL    HW1 8081   2.293   2.945   4.562 -0.9118 -0.1692 -0.2067
 2754SOL    HW2 8082   2.410   3.007   4.467  0.4895 -1.3255  0.7259
 2755SOL     OW 8083   1.180   0.131   4.271 -0.4248 -0.1494  0.1568
 2755SOL    HW1 8084   1.252   0.153   4.205 -0.6516  1.4937  0.4220
 2755SOL    HW2 8085   1.208   0.053   4.326  0.5097 -0.4611 -0.7273
 2756SOL     OW 8086   2.633   3.754   0.303 -0.0185  0.2647 -0.0194
 2756SOL    HW1 8087   2.633   3.742   0.402 -1.0400 -0.8267 -0.1288
 2756SOL    HW2 8088   2.581   3.836   0.278  0.7991  0.9130  0.3664
 2757SOL     OW 8089   0.951   3.409   4.545  0.2232 -0.4065  0.4672
 2757SOL    HW1 8090   1.011   3.489   4.542  1.1666 -1.0572  1.2443
 2757SOL    HW2 8091   0.883   3.421   4.618 -0.8697  0.4974 -0.6599
 2758SOL     OW 8092   1.927   2.768   0.022 -0.0981 -0.4809 -0.2540
 2758SOL    HW1 8093   1.946   2.857  -0.018  0.6632  0.6131  2.3475
 2758SOL    HW2 8094   1.849   2.776   0.084  1.3070 -1.0370  1.6759
 2759SOL     OW 8095   2.887   0.402   4.588  0.3269 -0.0010  0.0871
 2759SOL    HW1 8096   2.915   0.485   4.539  2.1030  1.7213  3.6332
 2759SOL    HW2 8097   2.967   0.344   4.605 -0.6929 -1.9027 -1.2360
 2760SOL     OW 8098   1.319   2.696   4.112 -0.5193  0.0065 -0.4214
 2760SOL    HW1 8099   1.243   2.755   4.086  0.4283  0.6732 -1.7426
 2760SOL    HW2 8100   1.389   2.696   4.041  0.6340 -0.7807  0.6487
 2761SOL     OW 8101   1.941   1.871   4.627  0.0769 -0.1391 -0.2256
 2761SOL    HW1 8102   1.846   1.899   4.615  0.6567  2.5015  0.7588
 2761SOL    HW2 8103   1.979   1.844   4.538 -1.2140  0.0538 -0.8560
 2762SOL     OW 8104   3.512   3.294   4.347  0.2493  0.0201  0.3539
 2762SOL    HW1 8105   3.430   3.336   4.309 -0.2122 -0.7861  0.4210
 2762SOL    HW2 8106   3.587   3.299   4.281 -0.1657 -0.1824 -0.1386
 2763SOL     OW 8107   2.786   4.695   0.853  0.5032  0.2636 -0.3160
 2763SOL    HW1 8108   2.736   4.756   0.914 -0.2878 -0.1813 -0.5026
 2763SOL    HW2 8109   2.772   4.724   0.758 -0.2907 -0.4860 -0.4407
 2764SOL     OW 8110   2.498   1.153   3.016  0.5240  0.0538  0.0994
 2764SOL    HW1 8111   2.452   1.069   2.987  0.6496 -0.1831  0.5762
 2764SOL    HW2 8112   2.596   1.146   2.998  0.1690  1.4509 -3.0565
 2765SOL     OW 8113   1.975   3.018   4.994  0.0328 -0.0467  0.4341
 2765SOL    HW1 8114   2.003   3.033   4.899  2.1303  0.6557  1.1252
 2765SOL    HW2 8115   2.047   3.048   5.056 -1.5399  0.0989  2.3004
 2766SOL     OW 8116   2.394   0.719   4.735  0.3337 -0.0055  0.3666
 2766SOL    HW1 8117   2.432   0.759   4.819  0.5388  0.7935 -0.0884
 2766SOL    HW2 8118   2.297   0.742   4.728  0.2069 -0.4615  0.6077
 2767SOL     OW 8119   2.135   2.345   3.591 -0.3265  0.3818 -0.4936
 2767SOL    HW1 8120   2.226   2.312   3.616 -0.9970 -0.6964  0.6961
 2767SOL    HW2 8121   2.086   2.273   3.543 -0.0739  1.4678 -2.4503
 2768SOL     OW 8122   3.730   3.262   2.182 -0.3029  0.7122  0.1031
 2768SOL    HW1 8123   3.785   3.178   2.187  0.7420  1.2535 -1.4820
 2768SOL    HW2 8124   3.778   3.335   2.231  0.1697  1.0510 -0.8340
 2769SOL     OW 8125   3.623   2.538   4.505  0.1194  0.1758  0.8404
 2769SOL    HW1 8126   3.628   2.629   4.465  1.2651 -0.1865  0.1047
 2769SOL    HW2 8127   3.715   2.499   4.512 -0.3371 -0.8837  1.2385
 2770SOL     OW 8128   2.582   1.648   0.625  0.0614 -0.2683  0.2474
 2770SOL    HW1 8129   2.594   1.605   0.715 -0.0141  0.3653  0.5675
 2770SOL    HW2 8130   2.591   1.579   0.554  2.3105 -0.4247  0.6158
 2771SOL     OW 8131   1.268   2.548   4.373  0.0648  0.0283 -0.6296
 2771SOL    HW1 8132   1.222   2.627   4.412 -0.8759  0.7186 -2.9473
 2771SOL    HW2 8133   1.305   2.572   4.283  2.1022 -1.4616 -0.2568
 2772SOL     OW 8134   3.511   1.235   3.965  0.5733  0.1602 -0.1006
 2772SOL    HW1 8135   3.482   1.152   3.918  2.1629 -0.3713 -0.1863
 2772SOL    HW2 8136   3.491   1.315   3.908 -1.8635 -0.0320  0.3960
 2773SOL     OW 8137   3.261   0.173   1.835  0.4673 -0.0337 -0.2074
 2773SOL    HW1 8138   3.351   0.174   1.792  0.7255  2.2232  0.2615
 2773SOL    HW2 8139   3.248   0.086   1.882  2.4840 -0.3638 -0.1602
 2774SOL     OW 8140   2.420   1.987   4.278  0.2690  0.0859 -0.0325
 2774SOL    HW1 8141   2.425   1.902   4.225  1.2376  0.4733 -0.5744
 2774SOL    HW2 8142   2.512   2.022   4.294 -0.0888  0.6694  0.7966
 2775SOL     OW 8143   1.418   2.973   3.862  0.4778 -0.2477 -0.1962
 2775SOL    HW1 8144   1.410   2.875   3.877 -1.5110  0.1112  1.7425
 2775SOL    HW2 8145   1.332   3.009   3.826  0.6757  0.9416  0.4384
 2776SOL     OW 8146   3.725   3.311   4.131  0.6660  0.7433 -0.2204
 2776SOL    HW1 8147   3.663   3.387   4.115  1.3336  1.0839 -1.2507
 2776SOL    HW2 8148   3.783   3.331   4.210 -1.0518  0.0697  1.2753
 2777SOL     OW 8149   3.594   3.471   3.807  0.0991  0.0502 -0.4000
 2777SOL    HW1 8150   3.524   3.416   3.763  0.9097 -1.0897 -0.3137
 2777SOL    HW2 8151   3.594   3.452   3.905  1.6748 -1.3501 -0.6194
 2778SOL     OW 8152   1.362   4.033   0.266  0.3051 -0.2044 -0.2143
 2778SOL    HW1 8153   1.282   3.983   0.297 -0.5664  0.4211 -1.3952
 2778SOL    HW2 8154   1.345   4.131   0.273  1.2660 -0.0528  0.2299
 2779SOL     OW 8155   3.630   2.035   0.307  0.2531  0.2509  0.2561
 2779SOL    HW1 8156   3.533   2.028   0.281  0.5972  0.2903 -1.1291
 2779SOL    HW2 8157   3.643   1.997   0.399 -1.3429  1.7394  1.1681
 2780SOL     OW 8158   3.814   3.382   4.387 -0.5360 -0.2864 -0.3379
 2780SOL    HW1 8159   3.777   3.430   4.467  0.5380  0.1899 -0.1199
 2780SOL    HW2 8160   3.883   3.439   4.343  1.6034 -2.0625  0.5887
 2781SOL     OW 8161   4.058   2.407   4.002 -0.0124  0.1735  0.0323
 2781SOL    HW1 8162   4.151   2.393   3.968 -0.2586 -0.2673 -0.4808
 2781SOL    HW2 8163   4.010   2.472   3.942  0.4826  1.7501  1.2548
 2782SOL     OW 8164   3.321   2.759   4.425  0.5366 -0.4554  0.0954
 2782SOL    HW1 8165   3.404   2.783   4.475 -0.1890  0.4067  0.9241
 2782SOL    HW2 8166   3.314   2.659   4.419  0.3452 -0.6302  2.2978
 2783SOL     OW 8167   2.584   3.463   4.084  0.5112  0.0404  0.6048
 2783SOL    HW1 8168   2.521   3.511   4.024  0.0048 -0.1781  0.9568
 2783SOL    HW2 8169   2.631   3.391   4.033  1.3559  0.9522  0.0416
 2784SOL     OW 8170   3.103   2.956   4.613  0.2072  0.2728  0.1298
 2784SOL    HW1 8171   3.035   2.904   4.665 -0.4811  1.0733  0.0609
 2784SOL    HW2 8172   3.103   2.925   4.518  0.9949 -0.7352  0.4422
 2785SOL     OW 8173   1.568   1.893   4.763  0.6447 -0.6581 -0.7803
 2785SOL    HW1 8174   1.584   1.878   4.665  0.2555  0.2807 -0.9990
 2785SOL    HW2 8175   1.487   1.842   4.791  1.9325 -2.6259 -0.4516
 2786SOL     OW 8176   3.313   3.733   0.663 -0.2374 -0.5137 -0.0850
 2786SOL    HW1 8177   3.380   3.805   0.646 -1.4106  0.8256  0.7648
 2786SOL    HW2 8178   3.221   3.768   0.644 -1.2444 -0.3529  4.1557
 2787SOL     OW 8179   3.277   3.713   0.941  0.4045 -0.0290 -0.1592
 2787SOL    HW1 8180   3.199   3.774   0.958  1.0802  0.5330  1.1012
 2787SOL    HW2 8181   3.293   3.706   0.843 -0.5673  0.7013 -0.3880
 2788SOL     OW 8182   1.812   3.561   3.213 -0.4604 -0.7564 -0.3511
 2788SOL    HW1 8183   1.824   3.517   3.124  0.2082  1.4794 -1.4405
 2788SOL    HW2 8184   1.899   3.566   3.260  0.0765  1.6501 -1.4286
 2789SOL     OW 8185   4.650   2.920   0.244  0.2997 -0.4597  0.0889
 2789SOL    HW1 8186   4.670   2.928   0.147  0.2791 -3.0430 -0.1963
 2789SOL    HW2 8187   4.736   2.904   0.294  0.1324 -0.7728  0.2786
 2790SOL     OW 8188   2.347   2.474   3.441 -0.3570  0.2767  0.1695
 2790SOL    HW1 8189   2.332   2.570   3.467  1.3633  1.0546 -1.5332
 2790SOL    HW2 8190   2.258   2.428   3.433 -1.4296  2.4268 -1.4542
 2791SOL     OW 8191   0.716   3.272   0.011 -0.8077  0.0592 -0.2477
 2791SOL    HW1 8192   0.787   3.342   0.015  1.5097 -2.1883  1.7588
 2791SOL    HW2 8193   0.648   3.289   0.082 -0.0881  0.1365  0.4367
 2792SOL     OW 8194   3.552   3.185   4.783  0.1628 -0.4977 -0.4125
 2792SOL    HW1 8195   3.578   3.281   4.781 -0.5196 -0.3216 -1.0087
 2792SOL    HW2 8196   3.539   3.156   4.878  0.1264  0.0672 -0.2423
 2793SOL     OW 8197   4.204   2.570   4.425  0.0990  0.6702 -0.3408
 2793SOL    HW1 8198   4.248   2.558   4.514  3.4060  0.8405 -1.8414
 2793SOL    HW2 8199   4.248   2.644   4.375 -0.6607 -0.4028 -2.7356
 2794SOL     OW 8200   2.081   0.784   1.439  0.1797 -0.7121  0.2365
 2794SOL    HW1 8201   2.138   0.861   1.466 -1.0038 -0.0884  1.0251
 2794SOL    HW2 8202   2.076   0.778   1.340 -0.0283  0.4763  0.1685
 2795SOL     OW 8203   4.081   2.331   5.036 -0.3800  0.0249 -0.6065
 2795SOL    HW1 8204   4.041   2.410   4.990  0.6818  0.3457 -1.0016
 2795SOL    HW2 8205   4.146   2.286   4.975  0.6532  0.1405  0.3731
 2796SOL     OW 8206   2.120   3.350   3.682 -0.5175 -0.5078  0.1230
 2796SOL    HW1 8207   2.026   3.385   3.674  0.4900  2.7121  0.7971
 2796SOL    HW2 8208   2.145   3.343   3.779 -0.2234 -1.9600 -0.0357
 2797SOL     OW 8209   3.173   1.498   0.661 -0.2941  0.1741 -0.0563
 2797SOL    HW1 8210   3.224   1.550   0.592  0.0982  0.7526  0.6616
 2797SOL    HW2 8211   3.097   1.450   0.616 -0.1655  0.6925 -0.8585
 2798SOL     OW 8212   3.024   3.055   1.115 -0.1245 -0.7126  1.4263
 2798SOL    HW1 8213   3.101   2.999   1.086 -1.0157 -1.3319  0.1569
 2798SOL    HW2 8214   3.058   3.136   1.163  1.8611  1.8147 -3.4127
 2799SOL     OW 8215   2.214   4.336   2.439 -0.2610 -0.1320  0.1829
 2799SOL    HW1 8216   2.200   4.320   2.341 -1.4492  0.3748  0.2565
 2799SOL    HW2 8217   2.288   4.402   2.452  0.7712 -1.1575 -0.3113
 2800SOL     OW 8218   2.839   3.211   4.395  0.3704 -0.4220 -0.6177
 2800SOL    HW1 8219   2.865   3.215   4.492  0.2366  1.5403 -0.6305
 2800SOL    HW2 8220   2.747   3.172   4.388  0.3837 -0.5934  0.0377
 2801SOL     OW 8221   0.683   0.334   4.929 -0.5594 -0.2641  0.3706
 2801SOL    HW1 8222   0.712   0.241   4.908 -0.7631 -0.2593  0.0570
 2801SOL    HW2 8223   0.660   0.382   4.844  1.8306  0.8518  0.2608
 2802SOL     OW 8224   1.083   3.032   4.335 -0.7987  0.3068 -0.6133
 2802SOL    HW1 8225   1.050   3.060   4.425  0.8123  1.6525 -0.3866
 2802SOL    HW2 8226   1.141   3.104   4.297  0.2294 -1.0944 -1.8290
 2803SOL     OW 8227   1.771   3.045   0.281 -0.1399 -0.0156 -0.4964
 2803SOL    HW1 8228   1.724   3.093   0.355  1.5383  1.1712 -0.1444
 2803SOL    HW2 8229   1.746   3.085   0.193  0.2216  0.6427 -0.3056
 2804SOL     OW 8230   4.080   0.709   2.192  0.4812  0.4816 -0.1072
 2804SOL    HW1 8231   4.143   0.640   2.155 -0.5136  1.1177 -3.2900
 2804SOL    HW2 8232   4.022   0.666   2.261 -0.0743 -1.9533 -1.9248
 2805SOL     OW 8233   4.044   0.370   0.489 -0.3761 -0.6058 -0.0797
 2805SOL    HW1 8234   3.990   0.454   0.488 -0.2488 -0.5229 -0.7542
 2805SOL    HW2 8235   4.091   0.361   0.576 -2.3816 -1.2754  0.9934
 2806SOL     OW 8236   4.187   0.367   4.808  0.0639 -0.8756  0.4136
 2806SOL    HW1 8237   4.096   0.403   4.788 -0.1406 -2.4046 -1.7271
 2806SOL    HW2 8238   4.180   0.292   4.874 -0.1929 -0.7989  0.4738
 2807SOL     OW 8239   1.932   4.068   1.117 -0.2439  0.0233 -0.5521
 2807SOL    HW1 8240   1.879   4.108   1.042 -1.6056 -0.3028  0.2032
 2807SOL    HW2 8241   1.876   4.002   1.165  0.4195  0.6251  1.1093
 2808SOL     OW 8242   3.912   3.475   1.342 -0.3360  0.6686  0.0096
 2808SOL    HW1 8243   3.979   3.515   1.404 -0.9563  2.7878 -0.6009
 2808SOL    HW2 8244   3.956   3.454   1.255 -0.0914  0.4130  0.1931
 2809SOL     OW 8245   4.922   4.545   2.349  0.5779 -0.1972  0.0286
 2809SOL    HW1 8246   4.869   4.607   2.406 -0.2398 -0.1357 -0.7664
 2809SOL    HW2 8247   4.893   4.554   2.254  0.3426 -1.8873 -0.0956
 2810SOL     OW 8248   4.268   4.737   1.762  0.2664 -0.1344 -0.1341
 2810SOL    HW1 8249   4.283   4.827   1.721 -0.2231 -1.1813 -2.8027
 2810SOL    HW2 8250   4.178   4.733   1.804 -0.1634  0.2910 -1.0024
 2811SOL     OW 8251   1.898   4.888   1.532  0.1282 -0.1512  0.0320
 2811SOL    HW1 8252   1.876   4.897   1.629  1.4947  1.0278  0.2680
 2811SOL    HW2 8253   1.820   4.919   1.477 -0.6458 -0.8029  0.7366
 2812SOL     OW 8254   4.732   0.011   4.917 -0.2389 -0.2063 -0.1561
 2812SOL    HW1 8255   4.797   0.043   4.987 -0.4667 -0.1798  0.0465
 2812SOL    HW2 8256   4.640   0.011   4.956 -0.6304  1.4686 -0.9638
 2813SOL     OW 8257   1.811   3.298   0.472  0.0381 -0.3135 -0.0075
 2813SOL    HW1 8258   1.719   3.258   0.466  0.0616 -0.3570 -0.0738
 2813SOL    HW2 8259   1.818   3.351   0.556 -0.1541 -0.0480 -0.1529
 2814SOL     OW 8260   4.365   0.220   1.930 -0.6954  0.7773 -0.6947
 2814SOL    HW1 8261   4.460   0.250   1.928 -1.0273  1.9508 -0.1130
 2814SOL    HW2 8262   4.360   0.123   1.955  0.2893  1.0136  0.5188
 2815SOL     OW 8263   3.193   4.160   0.101  0.5907  0.4308  0.1743
 2815SOL    HW1 8264   3.267   4.196   0.044 -1.8718  1.6795 -2.5341
 2815SOL    HW2 8265   3.228   4.086   0.158  4.2114  2.0037  0.2888
 2816SOL     OW 8266   3.460   4.882   2.221  0.4406 -0.1935  0.0475
 2816SOL    HW1 8267   3.395   4.957   2.234  1.3138  0.4286  0.9920
 2816SOL    HW2 8268   3.419   4.796   2.254  0.6576  0.4605  2.1591
 2817SOL     OW 8269   3.908   2.579   1.347 -0.0870  0.0888 -0.2433
 2817SOL    HW1 8270   3.977   2.530   1.294 -0.6464 -0.0283 -0.8765
 2817SOL    HW2 8271   3.886   2.526   1.429 -1.8525 -1.5901 -1.7085
 2818SOL     OW 8272   0.167   3.278   0.975 -0.0796  0.0955 -0.2229
 2818SOL    HW1 8273   0.225   3.318   1.046  0.0015  1.0011 -0.7850
 2818SOL    HW2 8274   0.151   3.346   0.903 -0.8979 -0.5198 -0.6315
 2819SOL     OW 8275   0.733   3.951   0.135 -0.0175  0.1573  0.2930
 2819SOL    HW1 8276   0.740   4.035   0.188 -1.3981  1.3538 -1.3116
 2819SOL    HW2 8277   0.811   3.943   0.073 -1.1858  1.7532 -1.5013
 2820SOL     OW 8278   3.410   3.477   1.010 -0.3121 -0.0868  0.4224
 2820SOL    HW1 8279   3.337   3.543   0.994  1.5524  1.8375 -0.7562
 2820SOL    HW2 8280   3.404   3.403   0.942  0.7504  1.9001 -1.9992
 2821SOL     OW 8281   3.334   4.805   3.619  0.2098  0.1337 -0.6421
 2821SOL    HW1 8282   3.425   4.773   3.594  0.5026  1.1089 -0.8751
 2821SOL    HW2 8283   3.280   4.822   3.536 -0.3525 -0.8997 -0.4946
 2822SOL     OW 8284   3.120   3.890   0.529 -0.0039  0.1116  0.3613
 2822SOL    HW1 8285   3.021   3.898   0.515  0.2381  0.7416 -1.2723
 2822SOL    HW2 8286   3.145   3.937   0.613 -1.1100 -0.1922  0.8842
 2823SOL     OW 8287   2.929   2.802   0.872  0.1830 -0.0866 -0.0201
 2823SOL    HW1 8288   2.884   2.856   0.802 -0.5808 -1.7654 -0.9003
 2823SOL    HW2 8289   2.861   2.765   0.935  0.8184  1.0307  1.3691
 2824SOL     OW 8290   2.522   4.930   3.204  0.2194  0.2517  0.3358
 2824SOL    HW1 8291   2.603   4.917   3.145  0.6837 -0.7520  1.1584
 2824SOL    HW2 8292   2.504   4.845   3.253 -1.3209  0.4912  0.2112
 2825SOL     OW 8293   3.485   0.336   0.648  0.4558  0.1630 -0.3785
 2825SOL    HW1 8294   3.584   0.349   0.648  0.5007 -0.1110  0.7749
 2825SOL    HW2 8295   3.441   0.420   0.678  0.4863 -0.4750  1.6161
 2826SOL     OW 8296   1.979   4.892   0.369 -0.0573  0.1443 -0.1066
 2826SOL    HW1 8297   1.931   4.978   0.387 -0.5103 -0.6538  2.9941
 2826SOL    HW2 8298   1.914   4.824   0.335 -0.2402  0.2964 -0.0634
 2827SOL     OW 8299   4.517   4.697   0.129  0.7806  0.2667 -0.2116
 2827SOL    HW1 8300   4.496   4.779   0.076 -2.9149 -0.5974 -0.3398
 2827SOL    HW2 8301   4.526   4.619   0.066  0.3845 -0.0696  0.1446
 2828SOL     OW 8302   3.921   3.437   0.148  0.7158  0.2249  0.1639
 2828SOL    HW1 8303   3.969   3.355   0.181  1.0440  0.0846 -0.6245
 2828SOL    HW2 8304   3.834   3.410   0.107  1.7435 -0.0402 -2.0305
 2829SOL     OW 8305   3.195   3.934   1.768 -0.2583  0.4070 -0.0078
 2829SOL    HW1 8306   3.249   3.868   1.821  0.9622  1.3426 -0.0554
 2829SOL    HW2 8307   3.112   3.889   1.734  0.5296 -1.0909 -0.0213
 2830SOL     OW 8308   1.604   3.670   1.005  0.0325  0.0218  0.4077
 2830SOL    HW1 8309   1.628   3.721   0.922 -0.5760  0.3247  0.4165
 2830SOL    HW2 8310   1.682   3.672   1.068  1.2499 -1.8720 -0.9296
 2831SOL     OW 8311   0.778   3.529   0.423 -0.7107 -0.2515  0.2398
 2831SOL    HW1 8312   0.703   3.498   0.482 -0.4475 -0.3691  0.5099
 2831SOL    HW2 8313   0.834   3.451   0.396 -1.1665 -0.2821 -0.6384
 2832SOL     OW 8314   3.188   4.380   1.395 -0.3633 -0.0663 -0.0759
 2832SOL    HW1 8315   3.112   4.325   1.431 -1.1870  0.8414 -0.3773
 2832SOL    HW2 8316   3.169   4.404   1.300 -0.3891  1.3511  0.2688
 2833SOL     OW 8317   3.343   3.747   1.923 -0.5517 -0.2386  0.3170
 2833SOL    HW1 8318   3.310   3.665   1.875  1.9265 -1.4492  0.5578
 2833SOL    HW2 8319   3.420   3.723   1.981  1.2751  2.5287 -0.7835
 2834SOL     OW 8320   4.744   0.569   2.987 -0.3602  0.0351 -0.4950
 2834SOL    HW1 8321   4.820   0.619   3.028 -0.6109  0.6536 -0.7758
 2834SOL    HW2 8322   4.705   0.622   2.911 -0.9683 -0.3449 -0.4604
 2835SOL     OW 8323   1.098   1.527   2.132  0.6904  0.0878 -0.2604
 2835SOL    HW1 8324   1.139   1.441   2.164  0.0529  0.8325  2.9197
 2835SOL    HW2 8325   1.003   1.511   2.104  0.4516 -0.2347  0.6850
 2836SOL     OW 8326   2.903   0.467   0.431  0.1534  0.5918  0.4849
 2836SOL    HW1 8327   2.958   0.456   0.348 -1.5183  3.3098 -1.1644
 2836SOL    HW2 8328   2.841   0.389   0.440 -1.3283  1.3011 -2.3218
 2837SOL     OW 8329   0.187   4.087   4.643  0.6644 -0.2761 -0.6742
 2837SOL    HW1 8330   0.219   3.997   4.613 -0.2187 -0.2313 -1.7818
 2837SOL    HW2 8331   0.132   4.129   4.571 -1.9834 -0.3879  1.1476
 2838SOL     OW 8332   1.835   0.580   3.660 -0.4206 -0.5172 -0.6550
 2838SOL    HW1 8333   1.775   0.626   3.725 -0.4603  0.0678 -1.0947
 2838SOL    HW2 8334   1.843   0.636   3.577  0.5486 -0.6957 -0.6918
 2839SOL     OW 8335   3.682   3.941   1.717 -0.2030 -0.0014 -0.5669
 2839SOL    HW1 8336   3.710   4.022   1.666 -0.4901  0.0361 -0.6662
 2839SOL    HW2 8337   3.600   3.902   1.675 -0.0238 -0.3880 -0.5680
 2840SOL     OW 8338   3.805   3.122   4.451 -0.3248  0.1654 -0.0130
 2840SOL    HW1 8339   3.769   3.083   4.366  0.1419 -0.9289  0.2811
 2840SOL    HW2 8340   3.825   3.219   4.436 -0.4290  0.0382 -1.1014
 2841SOL     OW 8341   2.871   2.741   0.337  0.1708  0.1789  0.1816
 2841SOL    HW1 8342   2.954   2.756   0.391 -0.2488  0.3359  0.7841
 2841SOL    HW2 8343   2.830   2.829   0.312 -1.1636  0.1127  1.9827
 2842SOL     OW 8344   3.679   3.605   0.260  0.1929  0.0204 -0.1227
 2842SOL    HW1 8345   3.656   3.530   0.197 -2.3064  0.7444 -0.1702
 2842SOL    HW2 8346   3.759   3.579   0.314  0.1527 -2.1685 -0.9981
 2843SOL     OW 8347   2.077   3.463   2.254  0.0336 -0.6456  0.5928
 2843SOL    HW1 8348   2.054   3.366   2.254 -1.4290 -0.3235  1.0328
 2843SOL    HW2 8349   2.036   3.506   2.174  0.7532 -0.4044  0.3522
 2844SOL     OW 8350   2.936   0.336   5.009 -0.2565  0.1160  0.3453
 2844SOL    HW1 8351   3.007   0.359   4.943 -0.4766 -0.5141 -0.1194
 2844SOL    HW2 8352   2.846   0.361   4.972 -0.3067  0.6906  0.8322
 2845SOL     OW 8353   3.576   3.712   4.990 -0.2049  0.5005  0.4412
 2845SOL    HW1 8354   3.598   3.745   5.082  1.4245 -2.1714  1.1348
 2845SOL    HW2 8355   3.492   3.756   4.958 -0.6050  1.8284  3.0156
 2846SOL     OW 8356   2.205   3.441   1.376 -0.6329  0.1712 -0.1564
 2846SOL    HW1 8357   2.132   3.379   1.403  0.4082 -1.1990 -0.3776
 2846SOL    HW2 8358   2.291   3.413   1.420 -0.1832  1.6520 -0.0056
 2847SOL     OW 8359   0.409   3.515   0.224  0.7421 -0.2306 -0.6235
 2847SOL    HW1 8360   0.464   3.593   0.254  0.4989 -0.5314  0.7020
 2847SOL    HW2 8361   0.469   3.438   0.202  0.9011 -0.5502  0.7938
 2848SOL     OW 8362   3.408   2.670   1.288 -0.4574  0.5843  0.2218
 2848SOL    HW1 8363   3.403   2.575   1.319 -0.2917  0.1179 -1.1127
 2848SOL    HW2 8364   3.325   2.718   1.316  0.2337  0.5878  2.5051
 2849SOL     OW 8365   4.862   4.000   1.505 -0.5260 -0.0644 -0.4338
 2849SOL    HW1 8366   4.796   4.069   1.476 -0.0582  0.6035  0.0365
 2849SOL    HW2 8367   4.814   3.917   1.534 -1.0418 -0.3691 -2.0802
 2850SOL     OW 8368   4.744   2.459   1.588  0.8017  0.0866 -0.2136
 2850SOL    HW1 8369   4.774   2.474   1.494  0.5971 -2.5741 -0.7873
 2850SOL    HW2 8370   4.644   2.457   1.592  0.7396  2.1458  0.4732
 2851SOL     OW 8371   3.025   3.215   1.813 -0.4102  0.5200 -0.3729
 2851SOL    HW1 8372   2.973   3.142   1.858  0.2782  0.9089  1.1397
 2851SOL    HW2 8373   3.122   3.207   1.839  0.0080  0.8072 -1.7753
 2852SOL     OW 8374   3.725   4.412   1.470  0.1165 -0.5980 -0.0902
 2852SOL    HW1 8375   3.756   4.421   1.376  0.6419 -0.1989  0.1109
 2852SOL    HW2 8376   3.625   4.422   1.474 -0.2425 -3.1326 -0.8996
 2853SOL     OW 8377   3.518   4.704   4.853 -0.3163  0.4003 -0.0058
 2853SOL    HW1 8378   3.609   4.706   4.811 -0.7949 -1.5645 -1.2932
 2853SOL    HW2 8379   3.470   4.622   4.823 -3.3577  2.4085 -1.1247
 2854SOL     OW 8380   2.604   3.723   1.743 -0.0722  0.2249 -0.2009
 2854SOL    HW1 8381   2.509   3.695   1.740 -0.5520  1.8480 -1.6617
 2854SOL    HW2 8382   2.650   3.676   1.818 -1.9163 -0.8374  0.3278
 2855SOL     OW 8383   0.472   3.740   4.665  0.0587  0.1412  0.0309
 2855SOL    HW1 8384   0.561   3.786   4.670  0.1084  0.1362 -0.7590
 2855SOL    HW2 8385   0.431   3.737   4.757  0.4902  0.8891  0.2558
 2856SOL     OW 8386   3.135   4.990   2.729  0.0973  0.6477 -0.2141
 2856SOL    HW1 8387   3.086   4.937   2.798 -0.0584  0.3008 -0.5823
 2856SOL    HW2 8388   3.217   5.031   2.769  0.4959 -0.2998 -0.0484
 2857SOL     OW 8389   4.375   1.080   1.130 -0.8412  0.2240  0.4039
 2857SOL    HW1 8390   4.288   1.115   1.165 -0.3393  0.8726  1.0122
 2857SOL    HW2 8391   4.438   1.155   1.114  0.0917 -0.3529  1.2782
 2858SOL     OW 8392   2.279   4.571   0.659  0.2487 -0.9900 -0.0060
 2858SOL    HW1 8393   2.340   4.588   0.737 -0.2408 -1.1538  0.4127
 2858SOL    HW2 8394   2.228   4.655   0.638  2.8472  0.1743 -2.3555
 2859SOL     OW 8395   3.233   4.473   4.430 -0.0578  0.6195  0.4808
 2859SOL    HW1 8396   3.272   4.389   4.466 -1.4988 -0.1558  0.3046
 2859SOL    HW2 8397   3.219   4.464   4.331 -0.0662  1.1274  0.4318
 2860SOL     OW 8398   0.288   4.703   2.205  0.6770  0.7286 -0.1577
 2860SOL    HW1 8399   0.296   4.605   2.185 -0.0975  0.7862 -0.7988
 2860SOL    HW2 8400   0.380   4.742   2.219  0.9491 -0.2490  0.9679
 2861SOL     OW 8401   1.326   2.339   0.696  0.2100  0.1489 -0.1905
 2861SOL    HW1 8402   1.375   2.292   0.770 -0.1604  1.6014  1.0203
 2861SOL    HW2 8403   1.229   2.317   0.701  0.0624  0.8611  0.2710
 2862SOL     OW 8404   0.126   4.215   1.076  0.2097  0.2614 -0.6862
 2862SOL    HW1 8405   0.065   4.144   1.111 -0.7416  0.4484 -1.8918
 2862SOL    HW2 8406   0.207   4.221   1.133 -0.9998  0.1635  1.1239
 2863SOL     OW 8407   2.515   3.162   1.572 -0.1759  0.0631  0.4952
 2863SOL    HW1 8408   2.513   3.143   1.474 -1.0373  1.4171  0.2188
 2863SOL    HW2 8409   2.548   3.081   1.621  2.3481  0.0500 -1.0451
 2864SOL     OW 8410   0.932   1.085   0.198  0.2711 -0.1993  0.1851
 2864SOL    HW1 8411   0.832   1.089   0.192  0.2944  0.7988  0.2812
 2864SOL    HW2 8412   0.971   1.112   0.110  0.4595  1.5295  0.7456
 2865SOL     OW 8413   4.473   3.392   0.411  0.0467  0.6944  0.5553
 2865SOL    HW1 8414   4.382   3.398   0.371 -0.5045  0.6503  1.7467
 2865SOL    HW2 8415   4.540   3.433   0.350 -0.8580  1.2352 -0.0840
 2866SOL     OW 8416   2.911   1.586   4.721 -0.2225 -0.3135 -0.4292
 2866SOL    HW1 8417   2.949   1.619   4.635 -0.8496  0.8364 -0.3007
 2866SOL    HW2 8418   2.834   1.525   4.703  0.3805 -1.0099 -0.6775
 2867SOL     OW 8419   0.247   4.405   4.329  0.8961 -0.4827  0.2589
 2867SOL    HW1 8420   0.207   4.471   4.266 -0.4427  0.1291  1.6841
 2867SOL    HW2 8421   0.346   4.399   4.313  0.5041 -0.9644 -2.3996
 2868SOL     OW 8422   3.802   4.097   1.252 -0.3590 -0.2155 -0.4141
 2868SOL    HW1 8423   3.742   4.162   1.205 -0.8429 -0.6484 -0.3964
 2868SOL    HW2 8424   3.780   4.004   1.223 -1.5400 -0.6229  1.6223
 2869SOL     OW 8425   1.527   4.877   1.605  0.1405 -0.5360  0.3182
 2869SOL    HW1 8426   1.470   4.831   1.537 -0.1301  0.6302 -0.2732
 2869SOL    HW2 8427   1.468   4.921   1.673  0.3770 -0.6334  0.5846
 2870SOL     OW 8428   0.144   4.522   0.955 -0.4831 -0.3442 -0.0112
 2870SOL    HW1 8429   0.156   4.437   0.904 -0.0423 -1.3271  1.6732
 2870SOL    HW2 8430   0.190   4.597   0.906  0.2675 -1.3292 -0.8525
 2871SOL     OW 8431   4.858   0.232   1.572 -0.6063  0.6585 -0.1771
 2871SOL    HW1 8432   4.759   0.219   1.574 -0.4994 -0.1671  0.4632
 2871SOL    HW2 8433   4.897   0.182   1.494 -0.7376  1.3727 -0.7072
 2872SOL     OW 8434   2.133   3.382   2.612 -0.2580 -0.9689  0.2698
 2872SOL    HW1 8435   2.132   3.462   2.552 -2.6692 -0.7150  0.5381
 2872SOL    HW2 8436   2.225   3.369   2.649  0.5752  0.6620 -1.0892
 2873SOL     OW 8437   3.423   3.469   2.483  0.9688 -0.0269 -0.1680
 2873SOL    HW1 8438   3.470   3.383   2.465  0.3531 -0.4754  0.3042
 2873SOL    HW2 8439   3.348   3.453   2.548 -0.4538  0.4779 -1.6206
 2874SOL     OW 8440   2.454   3.231   4.124  0.3356 -0.0581 -0.1286
 2874SOL    HW1 8441   2.493   3.168   4.057  0.7837 -0.8553  0.8538
 2874SOL    HW2 8442   2.510   3.313   4.130  1.2025 -0.6768  0.4046
 2875SOL     OW 8443   1.764   4.893   1.754 -0.4868 -1.1078  0.0757
 2875SOL    HW1 8444   1.691   4.879   1.687 -0.0145  0.7632 -0.8980
 2875SOL    HW2 8445   1.732   4.957   1.824  0.5071  0.5668 -0.9411
 2876SOL     OW 8446   1.542   3.142   0.447  0.4186 -0.3377  0.3778
 2876SOL    HW1 8447   1.510   3.235   0.462  0.9987 -0.3578  2.0079
 2876SOL    HW2 8448   1.487   3.098   0.377 -0.4568  0.9261  0.2430
 2877SOL     OW 8449   3.335   0.530   1.611 -0.0573  0.1278 -0.2786
 2877SOL    HW1 8450   3.342   0.628   1.631 -1.0077  0.2008 -0.2307
 2877SOL    HW2 8451   3.409   0.481   1.657  0.6662  0.8630 -0.6327
 2878SOL     OW 8452   2.234   0.775   4.177 -0.4249  0.2139 -0.3970
 2878SOL    HW1 8453   2.253   0.738   4.086 -1.2769  2.0366 -1.3855
 2878SOL    HW2 8454   2.137   0.768   4.196 -0.4062  0.7906 -0.0726
 2879SOL     OW 8455   4.339   3.682   0.764 -0.2147 -0.2293 -0.1633
 2879SOL    HW1 8456   4.241   3.703   0.768 -0.2536 -0.5552  0.6310
 2879SOL    HW2 8457   4.368   3.640   0.849  0.5512 -0.4554 -0.5264
 2880SOL     OW 8458   4.270   3.030   1.129  0.6178 -0.1417 -0.0360
 2880SOL    HW1 8459   4.175   2.997   1.132  0.4005  0.4866  0.1173
 2880SOL    HW2 8460   4.322   2.975   1.064 -0.1858  0.3550 -1.1438
 2881SOL     OW 8461   3.684   3.541   1.516  0.5610  0.3200 -0.3637
 2881SOL    HW1 8462   3.740   3.567   1.438  0.6038 -0.1850 -0.5062
 2881SOL    HW2 8463   3.587   3.549   1.492  0.5572 -1.2453 -0.9741
 2882SOL     OW 8464   2.826   4.305   1.808  0.2223  0.2055  0.0207
 2882SOL    HW1 8465   2.919   4.340   1.799 -0.0530  1.1889  0.8144
 2882SOL    HW2 8466   2.764   4.362   1.753  0.0157 -0.1152 -0.0788
 2883SOL     OW 8467   3.647   4.452   2.074 -0.1238 -0.1602  0.5475
 2883SOL    HW1 8468   3.680   4.508   2.150 -0.8428  0.1286  0.6523
 2883SOL    HW2 8469   3.694   4.364   2.075  0.5348  0.1853  0.7783
 2884SOL     OW 8470   3.840   0.096   1.875 -0.2450  0.0805  0.1730
 2884SOL    HW1 8471   3.935   0.098   1.906 -0.2057  0.2631  0.0392
 2884SOL    HW2 8472   3.832   0.036   1.796 -0.1333  0.5159 -0.1741
 2885SOL     OW 8473   3.531   0.089   1.810 -0.2508 -0.2125 -0.0397
 2885SOL    HW1 8474   3.534   0.003   1.861 -2.4976 -0.9131 -0.9680
 2885SOL    HW2 8475   3.612   0.096   1.752 -0.9766 -2.7745 -1.5009
 2886SOL     OW 8476   1.733   4.407   4.954  0.5836 -0.1671  0.3755
 2886SOL    HW1 8477   1.803   4.352   4.910 -0.4810 -0.1054 -1.4734
 2886SOL    HW2 8478   1.776   4.487   4.998  1.6125  0.3780 -1.5225
 2887SOL     OW 8479   1.924   2.985   1.486 -0.2261 -0.1857  0.2744
 2887SOL    HW1 8480   1.833   2.946   1.469 -0.5253  1.0859 -1.2814
 2887SOL    HW2 8481   1.992   2.932   1.435 -0.1932 -0.5854  0.7203
 2888SOL     OW 8482   3.873   2.464   0.481 -0.2488  0.2484 -0.3965
 2888SOL    HW1 8483   3.809   2.399   0.522 -1.5369  0.1357 -2.4066
 2888SOL    HW2 8484   3.941   2.415   0.426  0.2560  0.4883  0.0050
 2889SOL     OW 8485   3.553   0.090   4.040  0.4528  0.5133  0.5089
 2889SOL    HW1 8486   3.455   0.087   4.059  0.4898 -0.7415  0.5877
 2889SOL    HW2 8487   3.604   0.051   4.117  0.9178 -0.0418 -0.0652
 2890SOL     OW 8488   2.763   0.685   1.882  0.0928  0.0142  0.0219
 2890SOL    HW1 8489   2.827   0.720   1.950  2.4357 -0.0875 -1.9737
 2890SOL    HW2 8490   2.700   0.758   1.855 -0.7115  0.1236  2.0357
 2891SOL     OW 8491   1.829   2.341   4.104  0.1124  0.1958 -0.0437
 2891SOL    HW1 8492   1.748   2.301   4.061 -1.0493  0.8152  1.4419
 2891SOL    HW2 8493   1.891   2.268   4.131  0.1199 -0.2856 -1.3076
 2892SOL     OW 8494   2.319   3.689   0.992 -0.0734  0.6480 -0.1085
 2892SOL    HW1 8495   2.370   3.608   0.962  1.0484  1.4157 -0.2993
 2892SOL    HW2 8496   2.309   3.686   1.091 -1.0608 -0.3001 -0.2118
 2893SOL     OW 8497   0.034   4.254   0.354 -0.3431 -0.7322  0.5263
 2893SOL    HW1 8498   0.119   4.284   0.310  0.1094 -0.1276  1.7609
 2893SOL    HW2 8499  -0.011   4.185   0.296 -0.9793  1.6331 -2.0054
 2894SOL     OW 8500   2.723   4.737   1.832 -0.0747  0.3675  0.2471
 2894SOL    HW1 8501   2.760   4.717   1.923  0.9647  0.2365 -0.1945
 2894SOL    HW2 8502   2.655   4.810   1.840  2.3994  2.7897  0.7636
 2895SOL     OW 8503   3.099   3.780   4.485 -0.0817 -0.5271 -0.3283
 2895SOL    HW1 8504   3.181   3.780   4.542 -1.1725 -0.3528  1.3315
 2895SOL    HW2 8505   3.054   3.870   4.492 -1.0635 -1.0088 -0.1639
 2896SOL     OW 8506   3.559   4.321   4.785  0.5208 -0.1913 -0.5084
 2896SOL    HW1 8507   3.476   4.369   4.757  0.3983  0.2760  0.6053
 2896SOL    HW2 8508   3.537   4.227   4.811  0.3430 -0.0927 -0.2958
 2897SOL     OW 8509   3.202   2.877   0.991  0.7034  0.8326 -0.1941
 2897SOL    HW1 8510   3.111   2.865   0.952  0.5823  2.9182 -0.6876
 2897SOL    HW2 8511   3.265   2.810   0.951 -0.2024  0.6054 -1.2977
 2898SOL     OW 8512   1.918   4.229   4.815 -0.3757  0.1477 -0.7692
 2898SOL    HW1 8513   1.958   4.140   4.836  1.0661  0.3759 -2.2417
 2898SOL    HW2 8514   1.873   4.225   4.726 -2.4523  0.2974  0.2231
 2899SOL     OW 8515   4.519   4.045   2.230 -0.0050  0.1324  0.0717
 2899SOL    HW1 8516   4.575   4.127   2.242  2.1889 -1.4009  0.8261
 2899SOL    HW2 8517   4.473   4.023   2.316 -1.3287  1.0211 -0.3725
 2900SOL     OW 8518   2.558   2.419   1.466 -0.7031 -0.3508  0.2039
 2900SOL    HW1 8519   2.593   2.405   1.373 -1.3618  1.7445 -0.4136
 2900SOL    HW2 8520   2.465   2.383   1.473 -0.6919 -0.4192  0.0035
 2901SOL     OW 8521   0.773   3.682   4.312  0.5188  0.5469 -0.1434
 2901SOL    HW1 8522   0.852   3.651   4.259  0.3600 -0.4561  0.1805
 2901SOL    HW2 8523   0.805   3.738   4.389  0.9310  0.0593  0.0443
 2902SOL     OW 8524   3.657   4.628   3.186  0.5682 -0.0026 -0.3733
 2902SOL    HW1 8525   3.698   4.604   3.098 -1.6452 -1.5408 -1.0561
 2902SOL    HW2 8526   3.713   4.591   3.261  0.6037 -1.7994 -1.2519
 2903SOL     OW 8527   3.804   4.588   1.658 -0.2322  0.1719 -0.1753
 2903SOL    HW1 8528   3.856   4.657   1.609 -1.1968  1.4581  0.5496
 2903SOL    HW2 8529   3.775   4.517   1.594 -0.2714  1.0646 -1.1809
 2904SOL     OW 8530   2.501   4.274   0.109 -0.0416  0.0313 -0.2474
 2904SOL    HW1 8531   2.474   4.353   0.055 -1.0157 -0.2975 -0.2570
 2904SOL    HW2 8532   2.586   4.295   0.159 -0.6438  1.3172  0.2756
 2905SOL     OW 8533   3.230   3.559   1.760  0.1544  0.1407 -0.8409
 2905SOL    HW1 8534   3.239   3.539   1.663 -0.5635 -2.8014 -0.4219
 2905SOL    HW2 8535   3.133   3.558   1.785  0.3408  0.6926 -0.0723
 2906SOL     OW 8536   0.312   4.373   0.604 -0.5040  0.6408 -0.4729
 2906SOL    HW1 8537   0.263   4.361   0.690  0.3978  0.8038  0.0739
 2906SOL    HW2 8538   0.258   4.335   0.529 -0.1377 -1.9937  0.5030
 2907SOL     OW 8539   2.206   2.979   0.838 -0.5471  0.3259 -0.2359
 2907SOL    HW1 8540   2.249   2.889   0.841 -0.1469  0.5185  0.0020
 2907SOL    HW2 8541   2.107   2.969   0.844 -0.4507 -0.0430  1.4312
 2908SOL     OW 8542   3.181   0.622   1.912 -0.2500  0.3218  0.1194
 2908SOL    HW1 8543   3.179   0.536   1.860 -0.4755  0.2403  0.2576
 2908SOL    HW2 8544   3.244   0.686   1.869  0.8799 -0.3516  0.7173
 2909SOL     OW 8545   2.441   0.225   3.881 -0.0919 -0.1488  0.2983
 2909SOL    HW1 8546   2.436   0.153   3.950 -3.8726  0.5705  0.9906
 2909SOL    HW2 8547   2.470   0.310   3.924  2.6178 -0.7424 -0.1696
 2910SOL     OW 8548   3.558   3.142   0.789 -0.1996 -0.0792  0.7727
 2910SOL    HW1 8549   3.626   3.075   0.821 -1.5224 -1.4477  0.8168
 2910SOL    HW2 8550   3.605   3.228   0.765  1.5605 -1.0270  0.6273
 2911SOL     OW 8551   1.543   1.121   3.693 -0.0492  0.1824 -0.1478
 2911SOL    HW1 8552   1.522   1.204   3.745 -2.1550 -0.4349  0.0837
 2911SOL    HW2 8553   1.462   1.093   3.641  0.4513 -2.0015  0.1639
 2912SOL     OW 8554   2.848   3.711   0.737  0.3860 -0.0374 -0.3976
 2912SOL    HW1 8555   2.837   3.771   0.657 -0.8673 -0.9552 -0.9527
 2912SOL    HW2 8556   2.935   3.663   0.731  1.2715  1.4487 -0.1056
 2913SOL     OW 8557   3.345   2.918   4.745  0.5244  0.2877 -0.3284
 2913SOL    HW1 8558   3.262   2.927   4.689 -0.3957  1.0826  1.1189
 2913SOL    HW2 8559   3.425   2.941   4.690 -0.2430 -0.0266 -1.6194
 2914SOL     OW 8560   2.567   1.785   4.923  0.2236 -0.1765 -0.7854
 2914SOL    HW1 8561   2.471   1.760   4.930 -0.4592  2.4846  0.6599
 2914SOL    HW2 8562   2.624   1.713   4.962 -1.3755 -0.6356  0.8184
 2915SOL     OW 8563   3.429   0.334   0.950 -0.4047 -0.0815  0.3369
 2915SOL    HW1 8564   3.457   0.258   0.891 -0.3466  0.5960 -0.5351
 2915SOL    HW2 8565   3.329   0.339   0.952 -0.4488  1.5210 -1.9397
 2916SOL     OW 8566   4.968   0.944   2.118 -0.3674 -0.5132  0.1707
 2916SOL    HW1 8567   5.014   0.861   2.150 -1.9347 -1.4751  0.0054
 2916SOL    HW2 8568   4.869   0.930   2.119 -0.7346  1.7452  1.1859
 2917SOL     OW 8569   3.870   2.083   3.704 -0.2886 -0.6906 -0.2220
 2917SOL    HW1 8570   3.810   2.159   3.678  1.9662  0.5732 -2.1727
 2917SOL    HW2 8571   3.899   2.094   3.798 -1.1975  0.0076 -0.0088
 2918SOL     OW 8572   0.887   2.839   0.115 -0.1789  0.1653  0.3741
 2918SOL    HW1 8573   0.983   2.813   0.104  0.1060  0.6709  1.4527
 2918SOL    HW2 8574   0.842   2.776   0.178 -0.2965  0.4885  0.6198
 2919SOL     OW 8575   3.897   4.189   2.292 -0.0566  0.0048  1.0184
 2919SOL    HW1 8576   3.876   4.193   2.194  0.2819  0.2898  0.9568
 2919SOL    HW2 8577   3.927   4.096   2.315  1.1712  0.2721  0.5732
 2920SOL     OW 8578   1.643   0.303   3.881 -0.0983 -0.1518  0.1199
 2920SOL    HW1 8579   1.559   0.356   3.866  1.2155  1.6466 -1.1057
 2920SOL    HW2 8580   1.689   0.338   3.963 -0.0994 -0.5830  0.3066
 2921SOL     OW 8581   4.145   0.921   1.577 -0.1553 -0.0820  0.1623
 2921SOL    HW1 8582   4.214   0.884   1.516  2.2340  1.2653  1.8699
 2921SOL    HW2 8583   4.076   0.969   1.524  0.7163 -0.6655 -1.5688
 2922SOL     OW 8584   3.847   3.137   3.563  0.2833  0.1644 -0.6288
 2922SOL    HW1 8585   3.868   3.228   3.527  0.5719 -0.3942 -1.9487
 2922SOL    HW2 8586   3.749   3.121   3.558  0.3232  0.0765 -1.2584
 2923SOL     OW 8587   4.266   0.052   2.677  0.2718  0.3245  0.5285
 2923SOL    HW1 8588   4.350  -0.003   2.669  0.7458  0.4806  3.4994
 2923SOL    HW2 8589   4.198   0.017   2.613  1.0575 -2.7807  1.2122
 2924SOL     OW 8590   3.354   4.205   0.327 -0.6964  0.0620  0.3361
 2924SOL    HW1 8591   3.261   4.242   0.331 -0.4948  0.7504 -0.8476
 2924SOL    HW2 8592   3.353   4.118   0.279 -0.7655 -0.0663  0.5683
 2925SOL     OW 8593   3.293   4.689   1.789  0.3665 -0.4056 -0.4958
 2925SOL    HW1 8594   3.269   4.681   1.692  0.7155  1.1138 -0.7419
 2925SOL    HW2 8595   3.389   4.663   1.802  0.6887  0.5851 -0.7945
 2926SOL     OW 8596   3.839   3.734   1.681 -0.1008 -0.0976  0.4532
 2926SOL    HW1 8597   3.779   3.656   1.662 -0.8415  0.0906  1.8791
 2926SOL    HW2 8598   3.785   3.816   1.697  0.6047  0.3892  0.4055
 2927SOL     OW 8599   2.853   4.567   2.374  0.2287 -0.5324  0.1877
 2927SOL    HW1 8600   2.882   4.571   2.278  2.0035 -0.1196  0.7109
 2927SOL    HW2 8601   2.867   4.475   2.410 -2.2054 -1.2170 -0.4217
 2928SOL     OW 8602   3.698   4.738   0.328  0.1288 -0.0444 -0.0892
 2928SOL    HW1 8603   3.609   4.752   0.371  0.4021  1.2182  0.1060
 2928SOL    HW2 8604   3.764   4.805   0.363  0.8284 -0.1379 -1.1495
 2929SOL     OW 8605   4.608   3.984   0.650 -0.0920 -0.5290 -0.1445
 2929SOL    HW1 8606   4.584   3.902   0.598 -0.2019 -0.5341 -0.0854
 2929SOL    HW2 8607   4.547   4.059   0.626 -0.0286 -0.4804 -0.1558
 2930SOL     OW 8608   4.605   1.110   3.062 -0.4199 -0.5781  0.2635
 2930SOL    HW1 8609   4.590   1.015   3.088  0.0966 -0.9831 -0.8918
 2930SOL    HW2 8610   4.695   1.120   3.019 -1.2531  0.0496 -1.4242
 2931SOL     OW 8611   3.405   3.483   0.539 -0.2186  0.2120 -0.1035
 2931SOL    HW1 8612   3.369   3.441   0.456 -2.0147 -0.7727  1.1149
 2931SOL    HW2 8613   3.397   3.582   0.533 -1.6605  0.0842 -0.5472
 2932SOL     OW 8614   2.688   1.923   4.704  0.6563  0.3502  0.4673
 2932SOL    HW1 8615   2.759   1.973   4.753 -0.5280  4.5698 -1.6742
 2932SOL    HW2 8616   2.617   1.894   4.767  1.2693  1.6522  1.7952
 2933SOL     OW 8617   3.903   0.092   2.359  0.1978 -0.5742 -0.3099
 2933SOL    HW1 8618   3.839   0.093   2.281  0.4891 -1.0237 -0.5633
 2933SOL    HW2 8619   3.888   0.173   2.415 -0.6284 -0.6895 -0.3410
 2934SOL     OW 8620   4.042   2.412   0.888 -0.1068  0.7484 -0.5504
 2934SOL    HW1 8621   3.954   2.452   0.862 -0.8221 -0.9988 -0.9313
 2934SOL    HW2 8622   4.113   2.443   0.825 -0.8501  0.5555 -1.4942
 2935SOL     OW 8623   0.947   2.491   0.601 -0.2764  0.3836  0.1223
 2935SOL    HW1 8624   0.874   2.551   0.568  0.8060  0.8540 -1.5109
 2935SOL    HW2 8625   0.978   2.521   0.691 -1.6117  0.5818  0.5363
 2936SOL     OW 8626   4.719   3.727   0.403  0.3069  0.5440  0.5836
 2936SOL    HW1 8627   4.782   3.803   0.416  1.4775 -0.4450  0.8568
 2936SOL    HW2 8628   4.651   3.727   0.476  0.7402  0.9070  0.9882
 2937SOL     OW 8629   4.475   4.960   2.323  0.4806  0.2348 -0.0575
 2937SOL    HW1 8630   4.519   4.938   2.236 -2.3394 -0.5687 -1.4214
 2937SOL    HW2 8631   4.432   4.877   2.360 -0.0242  0.9787  1.0715
 2938SOL     OW 8632   4.068   0.762   0.480  0.1773 -0.3785  0.6150
 2938SOL    HW1 8633   4.162   0.752   0.513  0.4625  0.3192  0.0311
 2938SOL    HW2 8634   4.051   0.858   0.458 -0.8238 -0.4239  1.1545
 2939SOL     OW 8635   4.084   3.724   0.408 -0.6580  0.0237 -0.4028
 2939SOL    HW1 8636   4.093   3.625   0.423 -0.9204  0.0092 -0.3389
 2939SOL    HW2 8637   4.173   3.768   0.423 -0.8626 -0.0124  0.9848
 2940SOL     OW 8638   1.292   1.132   1.193  0.3409  0.2547  0.2449
 2940SOL    HW1 8639   1.286   1.164   1.288 -0.7514 -0.5788  0.4777
 2940SOL    HW2 8640   1.205   1.150   1.146  0.3344 -0.7128 -0.1373
 2941SOL     OW 8641   3.879   2.865   1.970 -0.7109 -0.2826  0.1423
 2941SOL    HW1 8642   3.930   2.944   2.002 -0.1894 -0.5824  0.0577
 2941SOL    HW2 8643   3.942   2.796   1.934 -1.0817 -1.0272  0.8514
 2942SOL     OW 8644   1.514   3.460   1.873 -0.2738 -0.0168  0.3781
 2942SOL    HW1 8645   1.421   3.491   1.854 -0.1436  0.8787  1.1005
 2942SOL    HW2 8646   1.577   3.538   1.866  0.0359 -0.0190  2.5237
 2943SOL     OW 8647   3.029   3.929   1.173 -0.0536 -0.4784  0.1795
 2943SOL    HW1 8648   2.929   3.920   1.176 -0.1501 -0.0630 -1.1380
 2943SOL    HW2 8649   3.055   3.986   1.096  1.1873 -0.0223  0.9002
 2944SOL     OW 8650   2.877   2.373   1.522  0.7714  0.1997  0.3569
 2944SOL    HW1 8651   2.780   2.376   1.497  0.9508  0.0165 -0.3598
 2944SOL    HW2 8652   2.928   2.440   1.468  1.0754  0.1820  0.6153
 2945SOL     OW 8653   2.050   3.027   2.053  0.0311 -0.4139  0.3978
 2945SOL    HW1 8654   2.074   2.935   2.083  0.9709 -0.1855  0.3710
 2945SOL    HW2 8655   1.966   3.024   1.999  1.2175 -1.5807 -1.4857
 2946SOL     OW 8656   4.737   0.037   0.538  0.6613 -0.2792  0.3910
 2946SOL    HW1 8657   4.681  -0.042   0.562 -0.7556  0.4738 -0.3094
 2946SOL    HW2 8658   4.747   0.043   0.439  0.3969  0.6404  0.4103
 2947SOL     OW 8659   2.565   2.450   4.420  0.0674 -0.3303 -0.1843
 2947SOL    HW1 8660   2.581   2.540   4.380 -0.6948 -0.3329 -0.5087
 2947SOL    HW2 8661   2.642   2.426   4.480  0.0915  0.7033  0.2164
 2948SOL     OW 8662   2.452   4.330   2.085 -0.5260  0.0091  0.5062
 2948SOL    HW1 8663   2.357   4.340   2.116 -0.1731  1.0246  1.3443
 2948SOL    HW2 8664   2.494   4.251   2.130 -1.5398 -1.7302 -1.4316
 2949SOL     OW 8665   3.887   3.899   0.457 -0.1376 -0.2842 -0.0943
 2949SOL    HW1 8666   3.943   3.822   0.425  0.4488 -0.2130  0.7382
 2949SOL    HW2 8667   3.845   3.944   0.378  3.8649  1.9044 -1.2870
 2950SOL     OW 8668   1.789   1.330   0.214  0.6622  0.2679  0.2876
 2950SOL    HW1 8669   1.880   1.306   0.248  0.4339  0.0520  0.7632
 2950SOL    HW2 8670   1.720   1.280   0.267  0.2780  0.2227 -0.2428
 2951SOL     OW 8671   1.447   0.164   1.650 -0.6091  0.2242 -0.4295
 2951SOL    HW1 8672   1.521   0.228   1.667 -0.2759  0.0284 -1.0891
 2951SOL    HW2 8673   1.458   0.084   1.709 -0.5860  0.4261 -0.1607
 2952SOL     OW 8674   2.014   3.201   2.277 -0.0404 -0.6947  0.5290
 2952SOL    HW1 8675   2.103   3.196   2.323  0.5408 -0.7548 -0.5647
 2952SOL    HW2 8676   2.008   3.127   2.209  0.2894  0.9773 -1.4424
 2953SOL     OW 8677   2.150   4.556   3.114  0.1295 -0.0692  0.3217
 2953SOL    HW1 8678   2.152   4.640   3.060  0.3246 -0.4064 -0.2044
 2953SOL    HW2 8679   2.188   4.481   3.060 -0.8886 -0.6914  0.4490
 2954SOL     OW 8680   3.586   0.545   1.928 -0.2015 -0.3526  0.1003
 2954SOL    HW1 8681   3.670   0.591   1.956  0.1886 -0.7646 -0.3899
 2954SOL    HW2 8682   3.531   0.524   2.009  0.8827 -1.4621  0.5761
 2955SOL     OW 8683   4.101   4.665   3.894  0.1293  0.5169  0.0825
 2955SOL    HW1 8684   4.138   4.579   3.859  1.6966  0.5000  1.6404
 2955SOL    HW2 8685   4.085   4.656   3.993 -0.8722  1.6250  0.0376
 2956SOL     OW 8686   3.049   0.399   1.739  0.3955 -0.3432 -0.1436
 2956SOL    HW1 8687   3.108   0.327   1.776  0.0235 -0.6831 -0.2132
 2956SOL    HW2 8688   2.961   0.360   1.712 -0.6291  0.4727  1.7903
 2957SOL     OW 8689   2.522   3.068   1.018  0.4661 -0.2002 -0.0114
 2957SOL    HW1 8690   2.611   3.098   1.053  0.6303 -1.2391  0.5062
 2957SOL    HW2 8691   2.465   3.038   1.094 -0.5877  1.0536 -0.2666
 2958SOL     OW 8692   3.747   4.618   2.272 -0.1068  0.5351 -0.1438
 2958SOL    HW1 8693   3.831   4.569   2.296  0.4964  0.7938 -1.6418
 2958SOL    HW2 8694   3.770   4.709   2.239 -1.0225  0.8096 -0.0394
 2959SOL     OW 8695   2.206   4.622   0.036  0.4060 -0.2567  0.0658
 2959SOL    HW1 8696   2.194   4.715   0.072 -0.0918  0.1023 -1.0081
 2959SOL    HW2 8697   2.151   4.558   0.090 -1.3227  0.4486 -0.7879
 2960SOL     OW 8698   2.122   3.714   2.677 -0.4250 -0.0437 -0.0117
 2960SOL    HW1 8699   2.031   3.690   2.712 -0.9308  1.1562 -0.4727
 2960SOL    HW2 8700   2.133   3.676   2.585  0.0326 -1.2464  0.5192
 2961SOL     OW 8701   2.972   3.905   2.080  0.6052  0.0711  0.1096
 2961SOL    HW1 8702   3.042   3.835   2.097 -0.0263 -0.3591  1.0873
 2961SOL    HW2 8703   3.014   3.986   2.040  1.6950 -0.1335  0.7944
 2962SOL     OW 8704   2.562   4.142   2.251 -0.0967  0.0140  0.5125
 2962SOL    HW1 8705   2.641   4.182   2.298 -0.2131  0.1398  0.6037
 2962SOL    HW2 8706   2.593   4.078   2.181  0.0789 -1.1676  1.6251
 2963SOL     OW 8707   2.845   2.924   3.130 -0.0456 -0.1549  0.1571
 2963SOL    HW1 8708   2.793   2.948   3.048 -0.6655 -0.8750  0.3278
 2963SOL    HW2 8709   2.910   2.997   3.151  0.1681  0.0098 -1.0112
 2964SOL     OW 8710   4.280   3.702   2.877 -0.2139  0.8741  0.2643
 2964SOL    HW1 8711   4.288   3.667   2.784  1.0303 -0.0281  0.6785
 2964SOL    HW2 8712   4.361   3.756   2.899 -0.8668  1.7511  0.5728
 2965SOL     OW 8713   4.750   3.224   2.122  0.0169 -0.2566 -0.0848
 2965SOL    HW1 8714   4.759   3.324   2.128 -0.5741 -0.2470  0.7714
 2965SOL    HW2 8715   4.715   3.188   2.208 -2.6284 -0.8655 -1.3086
 2966SOL     OW 8716   2.400   2.959   2.556 -0.1727  0.2922  0.1397
 2966SOL    HW1 8717   2.322   3.020   2.538 -0.4144  0.2082  0.8892
 2966SOL    HW2 8718   2.366   2.871   2.587  0.1050 -0.7567 -2.2827
 2967SOL     OW 8719   4.550   0.363   2.181  0.4330 -0.1528 -0.5953
 2967SOL    HW1 8720   4.495   0.293   2.225 -0.0948  1.1761  0.9475
 2967SOL    HW2 8721   4.647   0.340   2.191  0.2450 -1.2880 -1.2313
 2968SOL     OW 8722   2.771   4.879   1.327 -0.1470 -0.1024  0.2969
 2968SOL    HW1 8723   2.733   4.916   1.412  0.0106  0.3875  0.1617
 2968SOL    HW2 8724   2.769   4.951   1.257 -0.4854 -0.5713 -0.1770
 2969SOL     OW 8725   4.031   3.764   1.959  0.0938 -0.2227 -0.0130
 2969SOL    HW1 8726   4.027   3.733   2.054 -0.4699  3.0579  1.1745
 2969SOL    HW2 8727   3.954   3.727   1.908 -0.5286 -0.7265  1.2600
 2970SOL     OW 8728   4.027   0.971   0.910  0.0057 -0.2706 -0.1949
 2970SOL    HW1 8729   4.031   0.935   1.003 -0.3021 -2.7320 -1.0524
 2970SOL    HW2 8730   4.023   0.895   0.845 -0.5771  1.3741 -2.2038
 2971SOL     OW 8731   2.743   4.849   4.030 -0.4020 -0.0182 -0.6564
 2971SOL    HW1 8732   2.834   4.885   4.049 -0.3949 -0.8769  1.2853
 2971SOL    HW2 8733   2.674   4.916   4.057 -0.3614  0.3784 -1.5197
 2972SOL     OW 8734   2.866   0.516   2.996  0.3673  0.3649 -0.2999
 2972SOL    HW1 8735   2.769   0.514   3.018  0.6083  0.1244  0.8091
 2972SOL    HW2 8736   2.895   0.611   2.981  0.9982  1.1501  4.5243
 2973SOL     OW 8737   2.016   3.755   3.057  0.1890  0.1925  0.1402
 2973SOL    HW1 8738   1.987   3.766   3.152 -0.7077  1.4256 -0.2432
 2973SOL    HW2 8739   1.967   3.678   3.015  0.9431 -0.6621  0.7871
 2974SOL     OW 8740   1.266   4.919   1.306 -0.5622 -0.0508 -0.1083
 2974SOL    HW1 8741   1.316   4.845   1.352  0.0882 -0.2276 -1.0499
 2974SOL    HW2 8742   1.223   4.978   1.374  1.9866  0.8392  0.8509
 2975SOL     OW 8743   4.763   3.767   1.247 -0.0700  0.4068  0.1624
 2975SOL    HW1 8744   4.854   3.726   1.244 -0.0135  0.4775  0.6927
 2975SOL    HW2 8745   4.724   3.754   1.339 -1.2653 -1.0620 -0.5173
 2976SOL     OW 8746   1.609   3.566   3.801  0.5525  0.2723  0.1329
 2976SOL    HW1 8747   1.704   3.537   3.798  0.8089  1.1689 -1.9169
 2976SOL    HW2 8748   1.581   3.598   3.710 -1.5340  0.5643  0.8295
 2977SOL     OW 8749   2.082   1.825   4.375 -0.0198 -0.7697 -0.3686
 2977SOL    HW1 8750   2.099   1.923   4.370 -1.4210 -0.4124  1.0811
 2977SOL    HW2 8751   2.167   1.777   4.398  0.4728  0.2081 -0.1032
 2978SOL     OW 8752   1.548   4.453   1.951  0.5071 -0.4113 -0.2501
 2978SOL    HW1 8753   1.623   4.389   1.933  1.1699  0.8865 -2.4391
 2978SOL    HW2 8754   1.486   4.453   1.873  0.8799  2.0571 -0.6060
 2979SOL     OW 8755   4.031   3.716   2.621 -0.0860  0.1782 -0.3834
 2979SOL    HW1 8756   4.031   3.815   2.610  0.7049  0.4763  1.7755
 2979SOL    HW2 8757   3.942   3.686   2.656  0.5373  0.5654  1.7023
 2980SOL     OW 8758   2.588   4.350   2.552 -0.3479 -0.0965  0.3112
 2980SOL    HW1 8759   2.581   4.272   2.614 -0.7392 -0.1250  0.2343
 2980SOL    HW2 8760   2.584   4.435   2.604 -1.0104 -0.1164  0.2981
 2981SOL     OW 8761   2.492   0.233   2.657 -0.0210 -0.3582  0.3141
 2981SOL    HW1 8762   2.561   0.162   2.642 -0.8980 -1.0182 -0.7481
 2981SOL    HW2 8763   2.403   0.190   2.670 -0.3371  0.5090  1.1542
 2982SOL     OW 8764   3.803   0.486   2.750 -0.0773  0.2725  0.4505
 2982SOL    HW1 8765   3.773   0.568   2.701 -0.1395  0.6571  1.1265
 2982SOL    HW2 8766   3.842   0.421   2.684  2.0618  1.7644  0.1354
 2983SOL     OW 8767   3.851   0.179   2.987 -0.3983  0.0404 -0.0784
 2983SOL    HW1 8768   3.843   0.278   2.997 -0.2497  0.0598 -0.1406
 2983SOL    HW2 8769   3.801   0.134   3.060 -0.6507  0.1588 -0.1774
 2984SOL     OW 8770   2.141   3.986   2.556  0.0082  0.3946 -0.0302
 2984SOL    HW1 8771   2.085   3.951   2.481  0.1879  0.4770 -0.2007
 2984SOL    HW2 8772   2.132   3.924   2.635 -0.5613  0.5669  0.0464
 2985SOL     OW 8773   1.762   4.882   4.910  0.3885 -0.9080 -0.3225
 2985SOL    HW1 8774   1.844   4.910   4.860  0.0186  0.6947 -0.1145
 2985SOL    HW2 8775   1.742   4.949   4.981  0.9861 -3.2117  2.1677
 2986SOL     OW 8776   2.635   3.488   2.675 -0.3816 -0.5280  0.5218
 2986SOL    HW1 8777   2.636   3.398   2.717 -1.0329 -0.9280 -0.2732
 2986SOL    HW2 8778   2.579   3.550   2.731 -1.0203 -0.9793  0.4019
 2987SOL     OW 8779   4.100   4.402   1.734 -0.6419 -0.0988 -0.2444
 2987SOL    HW1 8780   4.035   4.358   1.796 -0.3133 -0.6306 -0.2774
 2987SOL    HW2 8781   4.128   4.490   1.773 -2.8249  1.0610 -1.1154
 2988SOL     OW 8782   3.329   0.502   2.460 -0.0547  0.0145  0.3742
 2988SOL    HW1 8783   3.307   0.599   2.467 -1.4406 -0.2557  0.0233
 2988SOL    HW2 8784   3.246   0.451   2.436  0.6233 -1.2723  0.7179
 2989SOL     OW 8785   3.798   4.147   1.568  0.0739  0.6947  0.4321
 2989SOL    HW1 8786   3.803   4.100   1.480  1.8404 -0.2909  1.0138
 2989SOL    HW2 8787   3.765   4.240   1.554  0.9986  0.7920 -1.3683
 2990SOL     OW 8788   4.900   0.124   1.909 -0.4132  0.2608 -0.4490
 2990SOL    HW1 8789   4.961   0.084   1.978 -1.5851  0.3993  0.7062
 2990SOL    HW2 8790   4.920   0.084   1.820 -0.0968 -1.2962  0.2807
 2991SOL     OW 8791   2.553   3.287   3.738  0.2132  0.7208 -0.0373
 2991SOL    HW1 8792   2.636   3.292   3.683 -0.1494 -1.2949 -0.8444
 2991SOL    HW2 8793   2.478   3.333   3.689  0.4576  1.0732 -0.0841
 2992SOL     OW 8794   2.908   0.968   4.651  0.4801 -0.0485  0.3804
 2992SOL    HW1 8795   2.895   0.889   4.592 -0.5834  1.1771 -1.1037
 2992SOL    HW2 8796   2.820   1.002   4.683  0.9056  0.6310  0.8766
 2993SOL     OW 8797   1.805   3.678   4.268 -0.0125 -0.1739 -0.1435
 2993SOL    HW1 8798   1.707   3.671   4.283  0.0465 -1.0611 -0.1069
 2993SOL    HW2 8799   1.831   3.774   4.258 -1.0545  0.0089 -1.3617
 2994SOL     OW 8800   4.771   4.710   2.510 -0.5247 -0.5981 -0.6440
 2994SOL    HW1 8801   4.756   4.808   2.494  0.7440 -0.6408 -2.3258
 2994SOL    HW2 8802   4.697   4.675   2.568 -0.2037  1.6539  1.3100
 2995SOL     OW 8803   2.979   3.785   1.646  0.1287  0.1673 -0.2258
 2995SOL    HW1 8804   3.053   3.738   1.597 -1.6443  0.7180 -3.7477
 2995SOL    HW2 8805   2.926   3.718   1.698  0.0198 -1.1912 -1.9691
 2996SOL     OW 8806   2.688   0.445   1.889  0.0120  0.1057 -0.1484
 2996SOL    HW1 8807   2.721   0.397   1.808 -0.9286  1.6562 -1.5183
 2996SOL    HW2 8808   2.725   0.538   1.889  0.7818 -0.1654  1.7578
 2997SOL     OW 8809   3.806   3.829   2.956  0.3247 -0.3508  0.3850
 2997SOL    HW1 8810   3.905   3.828   2.946  0.2044 -0.1604 -1.2223
 2997SOL    HW2 8811   3.767   3.893   2.889 -0.7584  1.3819  2.5299
 2998SOL     OW 8812   2.994   3.448   2.204 -0.2809 -0.4846 -0.2418
 2998SOL    HW1 8813   3.080   3.498   2.197 -0.9719  0.5395 -1.7749
 2998SOL    HW2 8814   3.006   3.370   2.265  1.5826 -0.0621 -0.0225
 2999SOL     OW 8815   1.251   4.288   4.772  0.1255 -0.3379 -0.4971
 2999SOL    HW1 8816   1.243   4.286   4.672 -2.4741  3.3275 -0.5534
 2999SOL    HW2 8817   1.320   4.356   4.799  0.6020 -1.0909  0.2358
 3000SOL     OW 8818   2.276   3.803   2.888 -0.0490  0.1002 -0.7333
 3000SOL    HW1 8819   2.255   3.764   2.978  0.5454 -1.5095 -1.2586
 3000SOL    HW2 8820   2.213   3.765   2.820  1.0808 -0.6306 -1.4008
 3001SOL     OW 8821   3.357   1.435   4.512  0.0505 -0.8375 -0.2600
 3001SOL    HW1 8822   3.270   1.398   4.481  0.7504 -2.6526 -0.2052
 3001SOL    HW2 8823   3.350   1.461   4.608 -0.2693 -1.6097 -0.0630
 3002SOL     OW 8824   1.904   4.174   2.716  0.1337  0.2291 -0.2174
 3002SOL    HW1 8825   1.944   4.257   2.753  0.1285 -0.5775  1.6796
 3002SOL    HW2 8826   1.934   4.095   2.768  0.5178 -1.0640 -2.2755
 3003SOL     OW 8827   1.757   0.051   2.623  0.1305 -0.0908  0.3035
 3003SOL    HW1 8828   1.718  -0.010   2.554 -0.1800  0.4599 -0.0155
 3003SOL    HW2 8829   1.684   0.084   2.683 -0.2277  2.1504 -1.2175
 3004SOL     OW 8830   4.889   0.097   3.130  0.6542  0.0106 -0.1764
 3004SOL    HW1 8831   4.813   0.162   3.121 -0.7130 -1.7575 -2.3563
 3004SOL    HW2 8832   4.859   0.019   3.184  0.1049 -1.6625 -2.7225
 3005SOL     OW 8833   2.739   0.314   1.125  0.9092  0.3933  0.2014
 3005SOL    HW1 8834   2.828   0.338   1.164  1.9690 -0.5829 -1.4685
 3005SOL    HW2 8835   2.737   0.341   1.029  0.2111 -1.4217 -0.3481
 3006SOL     OW 8836   3.851   0.810   1.835  0.3287 -0.1637  0.3410
 3006SOL    HW1 8837   3.951   0.809   1.832  0.4453  0.1544  2.5227
 3006SOL    HW2 8838   3.820   0.904   1.850 -0.2902 -0.3168  0.0238
 3007SOL     OW 8839   1.745   3.257   4.094 -0.6270 -0.2661 -0.0312
 3007SOL    HW1 8840   1.823   3.217   4.045 -0.6884  1.6054 -1.7715
 3007SOL    HW2 8841   1.778   3.310   4.172  0.0108  1.4555 -1.4129
 3008SOL     OW 8842   4.701   0.930   2.349  0.2814  0.2727  0.0498
 3008SOL    HW1 8843   4.708   0.985   2.265 -0.3025 -0.8262 -0.7450
 3008SOL    HW2 8844   4.728   0.985   2.427  2.5421  0.8128 -1.0443
 3009SOL     OW 8845   1.698   4.331   3.099 -0.1173 -0.6488 -0.2811
 3009SOL    HW1 8846   1.791   4.351   3.069 -0.2594  1.3385  0.4780
 3009SOL    HW2 8847   1.694   4.237   3.135  1.9659 -0.2774  1.0877
 3010SOL     OW 8848   3.364   3.109   0.989  0.0723 -0.2036 -0.0698
 3010SOL    HW1 8849   3.322   3.019   0.988 -0.4304  0.0281 -0.5250
 3010SOL    HW2 8850   3.433   3.115   0.917 -0.6745  0.1272 -0.7724
 3011SOL     OW 8851   4.724   3.253   2.886  0.8097  0.5130  0.2319
 3011SOL    HW1 8852   4.810   3.234   2.839  0.2014 -0.9093 -0.3514
 3011SOL    HW2 8853   4.707   3.181   2.954  0.3772  1.1090  0.7605
 3012SOL     OW 8854   0.590   0.079   2.380 -0.2245 -0.3483  0.6707
 3012SOL    HW1 8855   0.646   0.008   2.338 -1.2099  0.3380 -2.0302
 3012SOL    HW2 8856   0.513   0.037   2.428 -0.0896 -1.1472  0.2027
 3013SOL     OW 8857   4.401   1.430   4.716 -0.0496 -0.2846 -0.1064
 3013SOL    HW1 8858   4.493   1.444   4.681  0.7278 -0.9024  1.5651
 3013SOL    HW2 8859   4.351   1.369   4.654  0.7448 -0.1545 -0.8964
 3014SOL     OW 8860   3.490   3.988   2.409  0.0846  0.2978  0.6257
 3014SOL    HW1 8861   3.444   4.053   2.471 -0.0533  0.8184 -0.0102
 3014SOL    HW2 8862   3.437   3.903   2.405 -0.3583  0.5702  0.5858
 3015SOL     OW 8863   2.556   4.944   1.822 -0.1072  0.4147 -0.1864
 3015SOL    HW1 8864   2.559   4.985   1.914  1.6366  2.4727 -1.0689
 3015SOL    HW2 8865   2.510   5.007   1.759 -0.4359 -0.5462 -0.9285
 3016SOL     OW 8866   4.552   3.440   2.208  0.2262  0.2697  0.4365
 3016SOL    HW1 8867   4.570   3.423   2.305  2.1068 -1.4918 -0.1638
 3016SOL    HW2 8868   4.633   3.480   2.165 -1.1414  2.6225 -0.1215
 3017SOL     OW 8869   2.615   3.179   0.543 -0.4839 -0.0467 -0.4188
 3017SOL    HW1 8870   2.707   3.139   0.539 -0.4931  0.0056 -1.5896
 3017SOL    HW2 8871   2.577   3.183   0.450 -0.9233  1.6426 -0.1952
 3018SOL     OW 8872   2.728   0.800   3.087  0.5847  0.5039  0.1989
 3018SOL    HW1 8873   2.660   0.748   3.138  1.1159 -0.7087 -0.2758
 3018SOL    HW2 8874   2.811   0.810   3.143  1.2274 -0.9681 -0.4336
 3019SOL     OW 8875   3.924   0.506   2.318 -0.5294 -0.3999 -0.1939
 3019SOL    HW1 8876   3.867   0.586   2.335  0.9659  0.4370  1.1445
 3019SOL    HW2 8877   3.928   0.449   2.400 -0.6114 -1.2266 -0.7480
 3020SOL     OW 8878   3.107   3.028   0.577 -0.3346 -0.0089 -0.2417
 3020SOL    HW1 8879   3.067   3.071   0.658  0.3027  1.0108 -0.4532
 3020SOL    HW2 8880   3.205   3.050   0.573  0.0661 -1.6232 -0.2709
 3021SOL     OW 8881   2.214   4.690   1.473 -0.0237 -0.2322  0.4339
 3021SOL    HW1 8882   2.199   4.676   1.571  3.5558  4.0037  1.9313
 3021SOL    HW2 8883   2.299   4.645   1.445 -1.5346 -2.2744 -1.1191
 3022SOL     OW 8884   0.224   0.455   3.086  0.2164 -0.1644 -0.3149
 3022SOL    HW1 8885   0.212   0.551   3.062  2.5277  0.6434  1.4102
 3022SOL    HW2 8886   0.179   0.435   3.173  1.2693 -0.1306  0.2563
 3023SOL     OW 8887   2.533   3.335   4.893 -0.3592 -0.6799  0.1308
 3023SOL    HW1 8888   2.625   3.370   4.874 -0.1939 -0.8984  0.5290
 3023SOL    HW2 8889   2.511   3.264   4.827 -0.2900 -0.5476 -0.0372
 3024SOL     OW 8890   3.317   4.440   3.443 -0.2349  0.0468  0.2102
 3024SOL    HW1 8891   3.234   4.419   3.495  0.1881  0.6817  1.1748
 3024SOL    HW2 8892   3.305   4.527   3.394  0.4231  0.9978  1.6772
 3025SOL     OW 8893   3.131   0.475   1.452 -0.6169  0.3679 -0.4025
 3025SOL    HW1 8894   3.184   0.486   1.535 -0.9198  0.2868 -0.1949
 3025SOL    HW2 8895   3.119   0.564   1.408 -0.3443  0.3909 -0.4294
 3026SOL     OW 8896   2.650   0.172   3.003  0.6292 -0.1795 -0.0413
 3026SOL    HW1 8897   2.700   0.161   2.918 -0.3141 -0.6252 -0.5430
 3026SOL    HW2 8898   2.713   0.159   3.080  1.4649  0.1327 -0.6510
 3027SOL     OW 8899   2.587   0.461   3.006  0.0051  0.0022  0.1073
 3027SOL    HW1 8900   2.624   0.371   2.986 -1.1414 -0.4734  0.0744
 3027SOL    HW2 8901   2.490   0.463   2.984 -0.4192  0.6679  1.8767
 3028SOL     OW 8902   4.956   0.395   2.017 -0.1890  0.4769 -0.1320
 3028SOL    HW1 8903   5.055   0.404   2.021 -0.2213  1.6238 -1.2347
 3028SOL    HW2 8904   4.932   0.300   1.999  0.6694  0.0874  0.6641
 3029SOL     OW 8905   4.273   3.599   2.616  0.2895  0.1541 -0.3117
 3029SOL    HW1 8906   4.179   3.633   2.627  0.4186  0.4307 -0.0522
 3029SOL    HW2 8907   4.274   3.525   2.549  0.1292  1.1887 -1.4970
 3030SOL     OW 8908   4.081   4.291   2.972 -0.1357 -0.2769 -0.4839
 3030SOL    HW1 8909   4.033   4.256   2.892  0.2610 -0.7072 -0.5428
 3030SOL    HW2 8910   4.177   4.262   2.968 -0.0024  0.0960 -0.0896
 3031SOL     OW 8911   3.300   3.177   2.276  0.5390  0.6390  0.1952
 3031SOL    HW1 8912   3.335   3.178   2.369 -0.8234  0.3597  0.7361
 3031SOL    HW2 8913   3.364   3.128   2.216  0.5614 -0.7995  1.3430
 3032SOL     OW 8914   2.455   4.606   2.118  0.0732  0.2951 -0.2169
 3032SOL    HW1 8915   2.462   4.512   2.085  1.7608  0.3903 -0.2298
 3032SOL    HW2 8916   2.545   4.649   2.114  0.0559  0.8466  2.9713
 3033SOL     OW 8917   3.438   4.456   1.503 -0.3061 -0.0639  0.3572
 3033SOL    HW1 8918   3.348   4.452   1.459 -0.1217  1.5156 -0.2290
 3033SOL    HW2 8919   3.429   4.426   1.598 -1.6425  0.8077  0.5530
 3034SOL     OW 8920   3.055   4.081   3.569 -0.4141  0.1209 -0.4761
 3034SOL    HW1 8921   3.152   4.058   3.561 -0.0884  1.3710 -0.4635
 3034SOL    HW2 8922   3.012   4.021   3.636  0.6576  0.3707  0.4715
 3035SOL     OW 8923   2.137   3.132   3.523 -1.1302 -0.0316 -0.2557
 3035SOL    HW1 8924   2.144   3.216   3.576  0.7438  0.2333 -0.8289
 3035SOL    HW2 8925   2.089   3.062   3.576  1.5228 -0.1167  2.2485
 3036SOL     OW 8926   1.909   0.104   4.438 -0.1334  0.1604  0.4286
 3036SOL    HW1 8927   1.819   0.145   4.448  0.0302  0.2686  1.6387
 3036SOL    HW2 8928   1.951   0.137   4.353 -1.8798 -1.2233 -1.0522
 3037SOL     OW 8929   3.301   4.652   2.288  0.5348  0.8004  0.0583
 3037SOL    HW1 8930   3.218   4.683   2.333  0.1821  0.7189 -0.5209
 3037SOL    HW2 8931   3.288   4.558   2.255  1.2323  0.3836  0.9010
 3038SOL     OW 8932   1.070   4.946   2.534 -0.0561 -0.3158  0.2080
 3038SOL    HW1 8933   1.002   4.874   2.518  0.3050 -0.3183 -1.5842
 3038SOL    HW2 8934   1.135   4.946   2.458 -3.0144  5.2599 -2.9377
 3039SOL     OW 8935   2.867   4.269   2.084  0.3906 -0.4354 -0.5746
 3039SOL    HW1 8936   2.796   4.251   2.151  0.3365 -1.6681 -0.9458
 3039SOL    HW2 8937   2.825   4.280   1.993  0.3850  1.8910 -0.3687
 3040SOL     OW 8938   3.792   3.649   2.723 -0.1603  0.4611  0.4710
 3040SOL    HW1 8939   3.781   3.672   2.820  0.2462 -0.8846  0.8561
 3040SOL    HW2 8940   3.747   3.561   2.705  0.3611  0.3686 -0.4132
 3041SOL     OW 8941   2.461   1.896   1.372  0.5768  0.1965  0.0117
 3041SOL    HW1 8942   2.454   1.981   1.320  0.5947  1.0650  1.3695
 3041SOL    HW2 8943   2.557   1.869   1.377  0.8580  1.3139  1.3826
 3042SOL     OW 8944   2.732   0.045   0.706  0.1024  0.2266  0.5402
 3042SOL    HW1 8945   2.786   0.062   0.788 -1.2464  0.0671  1.5049
 3042SOL    HW2 8946   2.642   0.088   0.716 -0.2495 -0.2030 -0.6522
 3043SOL     OW 8947   3.796   4.856   2.142  0.2137  0.4623  0.3330
 3043SOL    HW1 8948   3.874   4.898   2.096  1.3818  0.1097  1.9069
 3043SOL    HW2 8949   3.733   4.928   2.172  1.6899  1.1059  2.0988
 3044SOL     OW 8950   3.524   0.147   0.169  0.1717 -0.0765 -0.0428
 3044SOL    HW1 8951   3.451   0.195   0.122 -1.8122 -0.6312  2.2689
 3044SOL    HW2 8952   3.491   0.058   0.201  2.3848 -1.0773 -0.3384
 3045SOL     OW 8953   1.319   0.318   2.609 -0.1201 -0.0008  0.6856
 3045SOL    HW1 8954   1.348   0.404   2.650 -1.4323  0.4580  0.6972
 3045SOL    HW2 8955   1.225   0.327   2.575  0.5374 -0.6821 -1.4919
 3046SOL     OW 8956   2.796   4.039   2.559  0.1190 -0.3129  0.0760
 3046SOL    HW1 8957   2.724   3.981   2.520 -1.4226 -0.2738  2.6028
 3046SOL    HW2 8958   2.885   3.999   2.541 -0.6746 -1.6023 -1.1876
 3047SOL     OW 8959   3.426   4.231   1.264 -0.2267  0.2296  0.5151
 3047SOL    HW1 8960   3.514   4.278   1.253  0.5695 -1.2335  0.4174
 3047SOL    HW2 8961   3.360   4.294   1.305  0.5057  1.7253 -0.4964
 3048SOL     OW 8962   2.812   4.388   2.820 -0.2485 -0.0292  0.2556
 3048SOL    HW1 8963   2.728   4.336   2.806  0.9631 -1.8799 -0.5491
 3048SOL    HW2 8964   2.815   4.421   2.914 -1.9827  0.3475  0.2266
 3049SOL     OW 8965   2.110   0.403   4.374 -0.1027  0.5639  0.4346
 3049SOL    HW1 8966   2.076   0.324   4.322 -0.2769  0.1799  1.1155
 3049SOL    HW2 8967   2.206   0.419   4.351 -0.0308  0.0782  0.3833
 3050SOL     OW 8968   3.932   4.239   2.747  0.0502  0.2425  0.3401
 3050SOL    HW1 8969   3.903   4.303   2.676  0.7499 -0.7714 -0.9089
 3050SOL    HW2 8970   3.855   4.181   2.773  0.1448 -0.4170 -0.7606
 3051SOL     OW 8971   2.544   0.460   3.977 -0.4902  0.1517 -0.1225
 3051SOL    HW1 8972   2.611   0.437   4.048  0.3137 -1.3084 -1.2897
 3051SOL    HW2 8973   2.574   0.540   3.927  1.8175 -1.8837 -2.2643
 3052SOL     OW 8974   2.133   1.183   2.434 -0.0939  0.6367  0.8159
 3052SOL    HW1 8975   2.216   1.138   2.468  1.1589  1.8761 -0.4437
 3052SOL    HW2 8976   2.139   1.191   2.335 -1.4947  1.2259  0.7666
 3053SOL     OW 8977   2.223   4.729   2.532  0.0013 -0.3337  0.0462
 3053SOL    HW1 8978   2.272   4.648   2.499  0.2544 -0.2654  0.2502
 3053SOL    HW2 8979   2.289   4.799   2.559 -0.2147  0.4547 -1.3773
 3054SOL     OW 8980   0.832   3.160   2.647 -0.0618 -0.7255 -0.2355
 3054SOL    HW1 8981   0.811   3.244   2.596  3.5906  1.3903  1.3375
 3054SOL    HW2 8982   0.856   3.087   2.582  1.1738  0.8611 -1.6560
 3055SOL     OW 8983   2.582   4.546   3.171  0.4423 -0.3414 -0.3274
 3055SOL    HW1 8984   2.681   4.532   3.169  0.4909 -0.0680  0.1491
 3055SOL    HW2 8985   2.557   4.599   3.252 -0.0153  0.2057 -0.8207
 3056SOL     OW 8986   3.182   4.757   4.644  0.3836  0.3050 -0.2107
 3056SOL    HW1 8987   3.166   4.853   4.663  0.7993  0.3007  0.1819
 3056SOL    HW2 8988   3.095   4.708   4.638  0.2114  0.3641  1.3834
 3057SOL     OW 8989   4.491   3.808   1.589  0.4097  0.4797  0.1282
 3057SOL    HW1 8990   4.511   3.794   1.685 -0.2552 -1.9945 -0.0259
 3057SOL    HW2 8991   4.439   3.893   1.578  2.4472  2.0218  1.5963
 3058SOL     OW 8992   3.237   4.124   2.841 -0.7128 -0.3994  0.0436
 3058SOL    HW1 8993   3.177   4.069   2.783 -0.8160 -0.4721  0.2189
 3058SOL    HW2 8994   3.193   4.212   2.862 -1.4647 -1.0830  1.4917
 3059SOL     OW 8995   3.238   0.028   2.245 -0.0356 -0.5740  0.1612
 3059SOL    HW1 8996   3.185  -0.014   2.172  0.5598  0.1441 -0.7160
 3059SOL    HW2 8997   3.186   0.026   2.331 -0.4914 -1.9735 -0.1345
 3060SOL     OW 8998   2.245   0.636   1.945 -0.1593 -0.1227  0.3327
 3060SOL    HW1 8999   2.242   0.586   2.032  0.0177 -0.2749  0.2539
 3060SOL    HW2 9000   2.285   0.577   1.875  0.8247  0.4149  0.4303
 3061SOL     OW 9001   1.593   1.496   0.054  0.2415  0.3538  0.0636
 3061SOL    HW1 9002   1.651   1.418   0.079  1.0981  0.9539 -0.0291
 3061SOL    HW2 9003   1.649   1.567   0.011 -0.6141  0.8215 -0.3017
 3062SOL     OW 9004   2.640   4.166   2.752  0.3963  0.2373 -0.2965
 3062SOL    HW1 9005   2.574   4.091   2.750  0.3778  0.2571 -1.4976
 3062SOL    HW2 9006   2.723   4.138   2.703 -0.3946  1.6549 -2.5825
 3063SOL     OW 9007   3.607   4.648   1.096 -0.1887  0.0695  0.1961
 3063SOL    HW1 9008   3.545   4.719   1.129  0.4909 -0.2699  2.3874
 3063SOL    HW2 9009   3.700   4.669   1.124  0.2536 -0.9045 -0.4717
 3064SOL     OW 9010   1.520   4.678   2.892 -0.1824 -0.0202 -0.2100
 3064SOL    HW1 9011   1.567   4.598   2.856 -1.2097 -0.3707 -0.8050
 3064SOL    HW2 9012   1.498   4.741   2.817 -2.2654 -0.7175 -0.2369
 3065SOL     OW 9013   4.519   3.373   1.294 -0.7799  0.1063  0.4140
 3065SOL    HW1 9014   4.503   3.419   1.382  1.9757 -0.2029  1.1854
 3065SOL    HW2 9015   4.559   3.438   1.229 -0.8645 -0.1665  0.0902
 3066SOL     OW 9016   2.868   4.415   3.721 -0.1875 -0.1746  0.0578
 3066SOL    HW1 9017   2.842   4.356   3.798  0.3882  0.5380  0.8073
 3066SOL    HW2 9018   2.931   4.485   3.753  1.3840 -0.8688 -1.4003
 3067SOL     OW 9019   3.131   0.509   4.375  0.1163 -0.0890  0.2183
 3067SOL    HW1 9020   3.211   0.473   4.328  2.1830  0.4389  3.0323
 3067SOL    HW2 9021   3.158   0.539   4.467 -3.2611  0.5430  1.1229
 3068SOL     OW 9022   3.681   4.283   3.636 -0.3612  0.5096 -0.0957
 3068SOL    HW1 9023   3.694   4.336   3.720  0.6504  1.0305 -0.5649
 3068SOL    HW2 9024   3.734   4.324   3.562  0.6828 -1.2835 -0.4139
 3069SOL     OW 9025   3.432   0.935   2.449  0.5628 -0.0863 -0.0432
 3069SOL    HW1 9026   3.472   0.867   2.387  1.0109  0.7678 -0.7038
 3069SOL    HW2 9027   3.378   1.000   2.397  0.1237  0.0637  0.5939
 3070SOL     OW 9028   1.377   3.624   1.478 -0.2811  0.5459  0.0094
 3070SOL    HW1 9029   1.344   3.571   1.400  0.2924 -2.5061  1.7010
 3070SOL    HW2 9030   1.476   3.636   1.470 -0.6712  3.7042 -1.5949
 3071SOL     OW 9031   3.042   4.856   2.102 -0.1034 -0.0927 -0.6351
 3071SOL    HW1 9032   2.976   4.887   2.170  1.0362  0.9016  0.0605
 3071SOL    HW2 9033   3.097   4.782   2.140 -0.2375 -0.3200 -0.8865
 3072SOL     OW 9034   2.761   3.706   0.055 -0.3450  0.5248  0.0489
 3072SOL    HW1 9035   2.693   3.672  -0.009  0.2991  1.1072 -0.9763
 3072SOL    HW2 9036   2.721   3.713   0.146 -0.5090 -3.0467  0.3912
 3073SOL     OW 9037   3.503   0.209   2.133 -0.1014 -0.3612  0.6812
 3073SOL    HW1 9038   3.517   0.238   2.038  1.2059 -1.0591  0.6441
 3073SOL    HW2 9039   3.422   0.151   2.138  0.6802 -1.5921 -0.3023
 3074SOL     OW 9040   3.203   3.588   3.051  0.1455  0.4488 -0.9113
 3074SOL    HW1 9041   3.211   3.581   3.150  0.0239  0.6956 -0.8830
 3074SOL    HW2 9042   3.244   3.508   3.008  1.8798  1.1956 -0.7336
 3075SOL     OW 9043   1.130   4.740   1.161  0.1047 -0.0234  0.2261
 3075SOL    HW1 9044   1.165   4.820   1.209  0.5564 -0.7472  1.1385
 3075SOL    HW2 9045   1.078   4.682   1.225  0.8046 -1.0530 -0.1089
 3076SOL     OW 9046   3.166   3.951   3.127  0.1192 -0.1836 -0.3145
 3076SOL    HW1 9047   3.216   3.949   3.040  0.0113  0.1651 -0.3868
 3076SOL    HW2 9048   3.225   3.916   3.200  0.1053 -0.7778 -0.5783
 3077SOL     OW 9049   4.146   2.515   2.998  0.2676  0.3697  0.2736
 3077SOL    HW1 9050   4.049   2.514   3.021  0.0572  2.2164 -0.3466
 3077SOL    HW2 9051   4.199   2.485   3.077 -0.7477  0.5750  1.0549
 3078SOL     OW 9052   2.414   4.858   4.206  0.1112  0.5324  0.1811
 3078SOL    HW1 9053   2.469   4.846   4.288 -0.7800  0.2160  0.7428
 3078SOL    HW2 9054   2.412   4.772   4.155  3.0658  1.4548 -1.7523
 3079SOL     OW 9055   3.539   4.614   2.421 -0.0504 -0.1188  0.1775
 3079SOL    HW1 9056   3.458   4.637   2.368  0.3597  1.0289  0.0295
 3079SOL    HW2 9057   3.619   4.611   2.361  0.2290  0.0397  0.5396
 3080SOL     OW 9058   1.395   4.050   2.165 -0.1807  0.1731  0.4353
 3080SOL    HW1 9059   1.430   4.141   2.188  1.1214  0.2093 -1.4812
 3080SOL    HW2 9060   1.415   4.030   2.069  1.2964 -2.8793  1.2381
 3081SOL     OW 9061   3.014   0.381   3.681  0.6517 -0.0738  0.6514
 3081SOL    HW1 9062   2.990   0.284   3.689 -0.1517  0.1305  0.7506
 3081SOL    HW2 9063   3.077   0.405   3.755  0.5072 -0.4143  0.8882
 3082SOL     OW 9064   1.273   4.522   2.400 -0.2318 -0.1593 -0.1995
 3082SOL    HW1 9065   1.177   4.534   2.374 -0.3382  1.2349  0.7224
 3082SOL    HW2 9066   1.287   4.559   2.492  1.2968  0.1919 -0.5546
 3083SOL     OW 9067   3.361   3.799   2.953  0.0058 -0.2357 -0.6865
 3083SOL    HW1 9068   3.447   3.813   3.002  0.4017 -1.1802 -1.0943
 3083SOL    HW2 9069   3.298   3.745   3.008 -1.0650  1.9395  0.3790
 3084SOL     OW 9070   2.790   4.117   4.698 -0.3515  0.4850  0.2347
 3084SOL    HW1 9071   2.812   4.193   4.759 -0.4500  0.6452  0.0727
 3084SOL    HW2 9072   2.722   4.058   4.741  1.0220 -0.5073  1.1213
 3085SOL     OW 9073   3.666   0.773   4.421  0.1745 -0.1083 -0.3469
 3085SOL    HW1 9074   3.717   0.824   4.352 -0.4756  0.9135 -0.1006
 3085SOL    HW2 9075   3.709   0.684   4.436  0.9552  0.0978 -1.2658
 3086SOL     OW 9076   3.637   1.325   0.235 -0.2982 -0.2273  0.7451
 3086SOL    HW1 9077   3.653   1.241   0.288  1.2459  0.5783  1.6430
 3086SOL    HW2 9078   3.699   1.397   0.267 -2.8810  1.8908  1.3596
 3087SOL     OW 9079   4.100   2.513   1.708 -0.2828  0.2168 -1.0319
 3087SOL    HW1 9080   4.136   2.575   1.638 -0.8776  1.1549 -0.5180
 3087SOL    HW2 9081   4.017   2.469   1.675 -0.1476  0.0837 -1.1972
 3088SOL     OW 9082   2.316   3.876   2.150 -0.3677  0.7320 -0.2945
 3088SOL    HW1 9083   2.234   3.929   2.126 -0.2405  0.9331 -0.2832
 3088SOL    HW2 9084   2.352   3.909   2.237  0.7854  1.8967 -1.1706
 3089SOL     OW 9085   4.324   2.819   4.313  0.0150  0.2162  0.2256
 3089SOL    HW1 9086   4.237   2.864   4.333  1.0159  2.9943 -1.1481
 3089SOL    HW2 9087   4.388   2.837   4.388  0.0785  0.1247  0.1925
 3090SOL     OW 9088   3.770   3.527   3.341  0.4670  0.4471  0.0524
 3090SOL    HW1 9089   3.698   3.590   3.370  0.2851 -0.0907  0.8037
 3090SOL    HW2 9090   3.809   3.481   3.421  0.4276 -0.5718 -0.4957
 3091SOL     OW 9091   3.952   4.774   2.665  0.4173 -0.2100 -0.0847
 3091SOL    HW1 9092   4.002   4.779   2.751 -0.6381 -0.2150  0.5456
 3091SOL    HW2 9093   3.856   4.751   2.683  0.4623 -1.5484 -1.3650
 3092SOL     OW 9094   4.015   4.954   2.012 -0.4117 -0.0497  0.0908
 3092SOL    HW1 9095   4.060   5.030   1.964  0.5340 -1.3865 -1.2706
 3092SOL    HW2 9096   4.063   4.936   2.098  1.0072 -0.6998 -0.7920
 3093SOL     OW 9097   3.617   0.683   2.567 -0.6048  0.4838 -0.1466
 3093SOL    HW1 9098   3.567   0.598   2.551  1.1966 -0.6460 -0.0322
 3093SOL    HW2 9099   3.566   0.739   2.632 -2.2303 -0.1051 -0.8457
 3094SOL     OW 9100   2.032   3.892   3.321  0.1451  0.5497  0.1409
 3094SOL    HW1 9101   2.048   3.990   3.312  0.9061  0.2967 -1.5664
 3094SOL    HW2 9102   1.966   3.875   3.395 -0.9055  2.4115 -0.3312
 3095SOL     OW 9103   3.005   0.101   1.358 -0.5958 -0.3608 -0.3067
 3095SOL    HW1 9104   3.056   0.085   1.443 -1.2209 -1.6521 -0.1464
 3095SOL    HW2 9105   2.964   0.193   1.361  0.6781  0.2276  0.0777
 3096SOL     OW 9106   0.511   3.054   3.208 -0.1906  0.1197 -0.4691
 3096SOL    HW1 9107   0.457   3.138   3.207 -1.8801 -0.9265 -0.6946
 3096SOL    HW2 9108   0.498   3.005   3.123  0.5721 -0.5213 -0.2325
 3097SOL     OW 9109   1.834   4.107   2.091 -0.1239  0.0779 -0.0444
 3097SOL    HW1 9110   1.810   4.099   2.187  1.8160  0.8514  0.5443
 3097SOL    HW2 9111   1.803   4.196   2.056 -0.2809  0.0529  0.0307
 3098SOL     OW 9112   3.553   3.140   3.517  0.2069  0.0373 -0.1638
 3098SOL    HW1 9113   3.549   3.235   3.486  1.5034  0.2473  0.2094
 3098SOL    HW2 9114   3.520   3.080   3.446  2.8959  0.5161 -1.9874
 3099SOL     OW 9115   2.989   3.604   2.894 -0.2614 -0.6963  0.4155
 3099SOL    HW1 9116   2.954   3.690   2.931 -1.3988 -1.0316  0.1671
 3099SOL    HW2 9117   3.053   3.563   2.959 -0.1213  0.0681  0.7710
 3100SOL     OW 9118   4.873   4.202   1.262  0.1662  0.2052  0.2304
 3100SOL    HW1 9119   4.942   4.144   1.305  0.4209  0.1981 -0.1844
 3100SOL    HW2 9120   4.795   4.214   1.325  0.3032 -0.2273  0.4825
 3101SOL     OW 9121   3.495   3.072   2.123  0.0216  0.6121  0.0133
 3101SOL    HW1 9122   3.528   3.091   2.030 -1.9947 -0.9759 -1.1188
 3101SOL    HW2 9123   3.572   3.046   2.181  1.1647  0.1265 -1.6518
 3102SOL     OW 9124   1.121   2.832   2.041  0.0961  0.0132  0.1164
 3102SOL    HW1 9125   1.156   2.742   2.017 -1.8451 -1.0715  1.1037
 3102SOL    HW2 9126   1.185   2.902   2.010  2.2380 -1.7258  0.3673
 3103SOL     OW 9127   1.636   0.616   1.940  0.1622 -0.2697 -0.0653
 3103SOL    HW1 9128   1.710   0.683   1.939  1.8124 -1.9751  0.8633
 3103SOL    HW2 9129   1.652   0.548   1.868  1.5278 -2.6132  2.2852
 3104SOL     OW 9130   1.797   1.576   2.872  0.2360  0.2126  0.0128
 3104SOL    HW1 9131   1.785   1.477   2.876  0.5439  0.2243  2.0230
 3104SOL    HW2 9132   1.842   1.601   2.786 -0.1442 -1.3378 -0.6614
 3105SOL     OW 9133   3.762   2.985   0.906 -0.5324  0.7029  0.0783
 3105SOL    HW1 9134   3.823   3.050   0.950 -1.5880  1.6516  0.2061
 3105SOL    HW2 9135   3.701   2.945   0.975 -0.4473  0.2148 -0.1293
 3106SOL     OW 9136   1.225   0.103   3.908  0.3735  0.1751 -0.0416
 3106SOL    HW1 9137   1.160   0.178   3.899  0.3093  0.0855 -0.3199
 3106SOL    HW2 9138   1.281   0.117   3.990 -1.5173 -0.8823  1.5472
 3107SOL     OW 9139   3.502   3.556   2.046  0.2205 -0.6218  0.2664
 3107SOL    HW1 9140   3.465   3.527   2.134  0.4735 -2.0785 -0.0815
 3107SOL    HW2 9141   3.516   3.476   1.988  2.4015  0.0388 -0.1992
 3108SOL     OW 9142   2.553   3.668   4.877  0.4283 -0.4565  0.2847
 3108SOL    HW1 9143   2.619   3.596   4.856  0.5045 -0.2959 -0.0340
 3108SOL    HW2 9144   2.492   3.637   4.950 -0.0731 -1.1748 -0.4130
 3109SOL     OW 9145   2.764   2.383   4.568 -0.5599 -0.3558 -0.1867
 3109SOL    HW1 9146   2.784   2.411   4.662 -4.4102 -0.1854  0.7422
 3109SOL    HW2 9147   2.829   2.312   4.540  0.1643 -1.0891  2.9694
 3110SOL     OW 9148   2.982   1.600   4.405 -0.2622 -0.6368 -0.3343
 3110SOL    HW1 9149   2.892   1.598   4.360 -0.2736 -0.2376 -0.3310
 3110SOL    HW2 9150   3.030   1.684   4.381 -1.2936  0.8560  2.3561
 3111SOL     OW 9151   3.816   4.473   0.586  0.7280  0.1860  0.2800
 3111SOL    HW1 9152   3.794   4.378   0.566  1.4191 -0.3308  1.8398
 3111SOL    HW2 9153   3.913   4.489   0.571  0.8234  0.3607  1.0542
 3112SOL     OW 9154   2.585   4.674   0.166  0.7895 -0.5965 -0.2098
 3112SOL    HW1 9155   2.629   4.607   0.225 -1.7151 -2.5377 -0.3672
 3112SOL    HW2 9156   2.579   4.762   0.213  1.6888 -1.2074  1.1066
 3113SOL     OW 9157   1.302   4.885   4.763  0.3064  1.0576  0.1857
 3113SOL    HW1 9158   1.337   4.978   4.767  0.1718  1.1503 -0.6343
 3113SOL    HW2 9159   1.378   4.820   4.771  0.4621  1.2381  0.1647
 3114SOL     OW 9160   2.771   0.399   0.864  0.4500 -0.0794 -0.0841
 3114SOL    HW1 9161   2.821   0.427   0.782  1.6879 -3.0749 -0.4629
 3114SOL    HW2 9162   2.673   0.396   0.844  0.5757  0.8120 -0.9237
 3115SOL     OW 9163   2.606   0.055   4.930 -0.8829  0.2348  0.0240
 3115SOL    HW1 9164   2.620   0.099   5.019  4.0951  0.8555 -0.7708
 3115SOL    HW2 9165   2.596  -0.043   4.942 -0.9046  0.3768  1.3042
 3116SOL     OW 9166   0.763   4.090   2.921 -0.1587 -0.1806 -0.2006
 3116SOL    HW1 9167   0.798   4.101   3.014 -0.4452  0.2364 -0.1353
 3116SOL    HW2 9168   0.675   4.138   2.913 -0.1935 -0.3137 -0.6526
 3117SOL     OW 9169   2.255   3.569   4.331  0.3468 -0.0362  0.1915
 3117SOL    HW1 9170   2.197   3.496   4.294 -0.7859  0.0419  1.7498
 3117SOL    HW2 9171   2.351   3.544   4.319  0.0125 -2.4027  1.7750
 3118SOL     OW 9172   3.730   0.142   4.678  0.2873  0.4248  0.3032
 3118SOL    HW1 9173   3.655   0.095   4.724  2.0933 -1.8814  1.1280
 3118SOL    HW2 9174   3.698   0.179   4.591 -2.1283  0.9490  1.3251
 3119SOL     OW 9175   1.549   4.739   4.761  0.2666 -0.1020  0.1022
 3119SOL    HW1 9176   1.585   4.739   4.668  0.0293  2.2698 -0.0501
 3119SOL    HW2 9177   1.619   4.771   4.824  0.7632 -2.6550  0.9662
 3120SOL     OW 9178   2.332   3.769   4.123 -0.0104  0.3001  0.1450
 3120SOL    HW1 9179   2.305   3.779   4.027 -0.0456 -1.2393 -0.0433
 3120SOL    HW2 9180   2.279   3.695   4.165  0.9865  0.0085  0.9504
 3121SOL     OW 9181   2.184   3.781   0.780  0.7502 -0.4431  0.0409
 3121SOL    HW1 9182   2.224   3.746   0.864  1.4108 -0.2864 -0.1945
 3121SOL    HW2 9183   2.167   3.706   0.716  2.4579 -0.3414 -0.5853
 3122SOL     OW 9184   2.279   4.819   4.881  0.7119 -0.4400  0.5498
 3122SOL    HW1 9185   2.280   4.802   4.783  3.1423  0.4192  0.3505
 3122SOL    HW2 9186   2.258   4.733   4.929  0.2537 -1.0407 -0.6862
 3123SOL     OW 9187   3.589   0.399   1.698  0.2090  0.0521  0.9256
 3123SOL    HW1 9188   3.655   0.326   1.681 -0.5657 -0.7049  1.1079
 3123SOL    HW2 9189   3.605   0.438   1.789  0.2900 -0.2673  1.0511
 3124SOL     OW 9190   2.954   4.509   4.129  0.2551  0.0199 -0.4722
 3124SOL    HW1 9191   2.855   4.526   4.126 -0.1438 -1.6734  1.0473
 3124SOL    HW2 9192   2.999   4.584   4.177 -0.3074  0.7528 -1.0766
 3125SOL     OW 9193   3.362   4.543   4.670 -0.2522 -0.2083 -0.2771
 3125SOL    HW1 9194   3.289   4.476   4.672 -1.0229  0.6204  0.9491
 3125SOL    HW2 9195   3.326   4.633   4.695  0.4892  0.9851 -3.0947
 3126SOL     OW 9196   2.303   1.140   4.559  0.1004  0.2330  0.0856
 3126SOL    HW1 9197   2.286   1.127   4.461 -0.6743  4.3615 -0.5138
 3126SOL    HW2 9198   2.382   1.086   4.587  1.3853  0.1683 -3.2488
 3127SOL     OW 9199   2.083   4.447   4.769 -0.0411 -0.0729  0.1631
 3127SOL    HW1 9200   2.049   4.499   4.691 -0.0062 -0.1882  0.0707
 3127SOL    HW2 9201   2.011   4.389   4.806 -0.5884  1.2650  1.3140
 3128SOL     OW 9202   2.303   0.187   1.430 -0.2262  0.5856 -0.0672
 3128SOL    HW1 9203   2.363   0.166   1.352  1.1020 -1.2840  1.3645
 3128SOL    HW2 9204   2.215   0.143   1.417  0.9203 -2.1044  0.6672
 3129SOL     OW 9205   3.340   0.934   4.491 -0.1867  0.0173  0.2572
 3129SOL    HW1 9206   3.283   1.012   4.517 -0.7747 -0.5555  0.7242
 3129SOL    HW2 9207   3.305   0.894   4.406 -0.6404 -0.4828  0.6735
 3130SOL     OW 9208   2.633   3.420   0.682  0.6068 -0.0925 -0.0770
 3130SOL    HW1 9209   2.622   3.327   0.648 -1.9460  0.7752 -1.8121
 3130SOL    HW2 9210   2.664   3.480   0.608 -1.4478  1.1205 -0.0193
 3131SOL     OW 9211   4.547   2.701   1.316  0.2765  0.0569 -0.5043
 3131SOL    HW1 9212   4.619   2.708   1.246  1.3082 -1.6598  0.3101
 3131SOL    HW2 9213   4.465   2.662   1.276  0.4096  0.3542 -1.0671
 3132SOL     OW 9214   3.211   2.734   0.087  0.2186  0.0927  0.3704
 3132SOL    HW1 9215   3.137   2.668   0.096 -2.3081  2.5628 -0.6768
 3132SOL    HW2 9216   3.265   2.713   0.005 -0.8385 -0.3967 -0.2141
 3133SOL     OW 9217   0.892   0.524   3.173  0.0363  0.2687  0.2188
 3133SOL    HW1 9218   0.920   0.429   3.162 -0.4315  0.1865 -0.2987
 3133SOL    HW2 9219   0.817   0.544   3.110 -0.9709  0.5237  1.4538
 3134SOL     OW 9220   3.466   4.198   3.927 -0.7076 -0.1211 -1.3386
 3134SOL    HW1 9221   3.417   4.113   3.907 -1.1181  0.1602 -1.5629
 3134SOL    HW2 9222   3.432   4.271   3.867 -0.7013  0.3147 -0.8202
 3135SOL     OW 9223   3.681   1.061   3.325 -0.6188 -1.1004  0.2917
 3135SOL    HW1 9224   3.611   1.040   3.393 -3.7500  3.3853 -1.0264
 3135SOL    HW2 9225   3.642   1.052   3.233  0.0164  2.4086 -0.4743
 3136SOL     OW 9226   2.986   3.886   3.755  0.3004 -0.5095 -0.3070
 3136SOL    HW1 9227   3.040   3.820   3.703  0.9049 -0.6028  0.4214
 3136SOL    HW2 9228   3.024   3.895   3.847  0.3784  1.0405 -0.4592
 3137SOL     OW 9229   2.288   4.298   0.566 -0.2122 -0.3477  0.0495
 3137SOL    HW1 9230   2.251   4.382   0.605 -0.2222 -0.5380  0.4635
 3137SOL    HW2 9231   2.365   4.267   0.622  1.5348  0.8217 -1.6066
 3138SOL     OW 9232   0.536   3.570   4.263 -0.5502  0.3507 -0.5122
 3138SOL    HW1 9233   0.623   3.614   4.286  0.6557 -1.6479 -0.9686
 3138SOL    HW2 9234   0.489   3.542   4.346 -0.1164  0.3052 -0.2795
 3139SOL     OW 9235   2.187   3.066   1.273 -0.2988 -0.0827 -0.3658
 3139SOL    HW1 9236   2.188   2.967   1.283  1.7894 -0.1279 -0.5199
 3139SOL    HW2 9237   2.193   3.109   1.363 -2.1480 -0.0533 -0.2343
 3140SOL     OW 9238   3.157   2.432   4.534 -0.1366  0.0886  0.7420
 3140SOL    HW1 9239   3.249   2.447   4.498 -0.2640  1.2594  0.8425
 3140SOL    HW2 9240   3.143   2.489   4.615 -0.4759 -1.1446  1.5734
 3141SOL     OW 9241   0.779   3.625   0.144 -0.4437 -0.0836 -0.6707
 3141SOL    HW1 9242   0.853   3.601   0.208  1.7872  2.9785 -1.8154
 3141SOL    HW2 9243   0.726   3.701   0.182 -1.4216 -0.6188 -0.9433
 3142SOL     OW 9244   2.890   4.327   4.855 -0.4251 -0.2398  0.1944
 3142SOL    HW1 9245   2.911   4.263   4.929  1.5388 -1.6176 -1.4246
 3142SOL    HW2 9246   2.825   4.396   4.887 -2.9217 -3.1492  2.0001
 3143SOL     OW 9247   3.136   2.934   2.942 -0.5569 -0.3535  0.2122
 3143SOL    HW1 9248   3.174   2.993   2.871  0.1154 -0.7102  0.2733
 3143SOL    HW2 9249   3.133   2.840   2.911 -0.0736 -0.5428  0.7291
 3144SOL     OW 9250   3.010   4.111   1.389  0.2919  0.5219 -0.3838
 3144SOL    HW1 9251   2.918   4.131   1.423  0.2064 -0.5842  0.0664
 3144SOL    HW2 9252   3.005   4.044   1.316  0.7313  0.5891 -0.4779
 3145SOL     OW 9253   4.520   0.250   4.657 -0.3592  0.0258  0.1563
 3145SOL    HW1 9254   4.510   0.193   4.575 -0.0937  0.7571 -0.3965
 3145SOL    HW2 9255   4.612   0.290   4.658 -0.2191 -0.3005  1.0309
 3146SOL     OW 9256   2.887   3.623   4.450  0.1173  0.0254  0.1771
 3146SOL    HW1 9257   2.833   3.638   4.367 -0.1742 -0.4153  0.2858
 3146SOL    HW2 9258   2.954   3.696   4.459 -0.5533  0.6626  0.1145
 3147SOL     OW 9259   3.033   3.216   2.383 -1.1322 -0.1322 -0.4225
 3147SOL    HW1 9260   3.040   3.212   2.483 -0.2934  2.0195 -0.3326
 3147SOL    HW2 9261   3.119   3.187   2.342 -1.3533 -0.6674 -0.5127
 3148SOL     OW 9262   2.267   1.374   0.089 -0.1910 -0.1584  0.5142
 3148SOL    HW1 9263   2.215   1.451   0.127 -0.3444 -0.5836  1.1696
 3148SOL    HW2 9264   2.362   1.381   0.116 -0.1717 -0.1095  0.4341
 3149SOL     OW 9265   1.352   0.745   4.177  0.0443  0.0294  0.5555
 3149SOL    HW1 9266   1.302   0.776   4.096  0.7802 -0.0027  0.0729
 3149SOL    HW2 9267   1.319   0.656   4.205 -2.2543  1.2574  2.0790
 3150SOL     OW 9268   2.863   4.150   0.964 -0.1028  0.0450  0.4321
 3150SOL    HW1 9269   2.921   4.211   1.017  0.2649 -1.2807  1.6058
 3150SOL    HW2 9270   2.769   4.185   0.964  0.3583  1.3588 -0.1581
 3151SOL     OW 9271   4.127   0.341   0.733  0.0960 -0.4302 -0.1979
 3151SOL    HW1 9272   4.192   0.268   0.714 -0.0925 -0.9765  1.1168
 3151SOL    HW2 9273   4.120   0.355   0.832 -0.3232  0.9705 -0.3911
 3152SOL     OW 9274   3.950   4.846   4.889  0.2474  0.0297  0.5624
 3152SOL    HW1 9275   3.939   4.935   4.932  0.2877  0.7185 -0.7875
 3152SOL    HW2 9276   3.913   4.849   4.796  0.5426 -1.2724  0.3776
 3153SOL     OW 9277   3.078   5.031   1.119 -0.1632 -0.1497 -0.3458
 3153SOL    HW1 9278   3.082   4.933   1.138 -2.7190 -0.2561 -0.0166
 3153SOL    HW2 9279   3.071   5.082   1.205  1.3894  0.3839 -0.4993
 3154SOL     OW 9280   4.170   4.395   3.815 -0.5186 -0.1027 -0.1913
 3154SOL    HW1 9281   4.083   4.364   3.852 -0.6314  1.9593  1.4466
 3154SOL    HW2 9282   4.245   4.350   3.863 -0.6445 -0.7544 -0.5812
 3155SOL     OW 9283   1.382   3.997   2.712  0.0900 -0.1262  0.4702
 3155SOL    HW1 9284   1.456   4.054   2.676  0.7076 -0.6939  0.8186
 3155SOL    HW2 9285   1.340   4.041   2.791 -1.3865  1.2136 -0.9804
 3156SOL     OW 9286   3.020   4.577   0.924  0.1028 -0.3758 -0.4543
 3156SOL    HW1 9287   2.931   4.621   0.914  0.9241  1.5338  0.2697
 3156SOL    HW2 9288   3.007   4.480   0.946 -1.7713 -0.2300 -0.7558
 3157SOL     OW 9289   3.360   0.234   0.430 -0.2397  0.0731  0.2773
 3157SOL    HW1 9290   3.425   0.245   0.354 -2.3703  2.5641 -1.3442
 3157SOL    HW2 9291   3.390   0.289   0.508  0.3899 -0.0456  0.1225
 3158SOL     OW 9292   1.965   0.452   4.030 -0.2422 -0.3027 -0.7880
 3158SOL    HW1 9293   1.965   0.512   3.950  1.4904 -1.8402 -2.0288
 3158SOL    HW2 9294   2.026   0.375   4.014  0.6318 -0.3975  2.2713
 3159SOL     OW 9295   1.986   0.428   5.018  0.0534  0.0759  0.0864
 3159SOL    HW1 9296   2.007   0.467   4.928 -0.6202  0.4983  0.1055
 3159SOL    HW2 9297   1.957   0.500   5.080 -1.2370 -0.4433  0.1191
 3160SOL     OW 9298   1.905   4.889   4.575  0.2425  0.1345 -0.1256
 3160SOL    HW1 9299   1.948   4.915   4.662  2.4637  1.4411 -1.4989
 3160SOL    HW2 9300   1.899   4.969   4.516  0.2680 -1.0061 -1.7545
 3161SOL     OW 9301   1.347   4.303   0.274 -0.1721 -0.2514  0.8044
 3161SOL    HW1 9302   1.440   4.315   0.239  0.2559 -2.1702  1.1801
 3161SOL    HW2 9303   1.281   4.326   0.202  0.6380 -1.0417 -0.2147
 3162SOL     OW 9304   3.492   4.759   4.247  0.0318 -0.3306  0.8714
 3162SOL    HW1 9305   3.537   4.673   4.223 -0.4712  0.2931 -2.9418
 3162SOL    HW2 9306   3.534   4.834   4.196 -2.6885  0.9022  0.2524
 3163SOL     OW 9307   3.260   2.970   3.607  0.2038 -0.4515  0.3611
 3163SOL    HW1 9308   3.317   2.967   3.690 -0.4242 -0.6681  0.7946
 3163SOL    HW2 9309   3.222   2.879   3.589 -1.4381  0.0399  1.1088
 3164SOL     OW 9310   2.534   4.822   4.947  0.2086 -0.1358 -0.2304
 3164SOL    HW1 9311   2.554   4.795   5.041  0.6053 -3.0897 -1.0656
 3164SOL    HW2 9312   2.436   4.813   4.930  0.4476 -2.2867 -0.7727
 3165SOL     OW 9313   2.725   3.174   0.032  0.2684  0.4435 -0.1490
 3165SOL    HW1 9314   2.643   3.216  -0.007 -0.1747  0.0422  0.3312
 3165SOL    HW2 9315   2.805   3.199  -0.022 -0.3744 -0.3500 -1.5107
 3166SOL     OW 9316   2.048   3.560   0.956 -0.2138 -0.3394 -0.4348
 3166SOL    HW1 9317   2.027   3.657   0.956  0.6734 -0.1305 -0.0410
 3166SOL    HW2 9318   2.148   3.547   0.958 -0.3225 -1.2354  0.8315
 3167SOL     OW 9319   2.759   3.494   4.844  0.5554 -0.1047  0.0563
 3167SOL    HW1 9320   2.762   3.507   4.745 -1.5103 -1.2733 -0.2175
 3167SOL    HW2 9321   2.852   3.494   4.880  1.5618 -2.0581 -2.2314
 3168SOL     OW 9322   1.348   4.033   4.789  0.1307 -0.2269 -0.3108
 3168SOL    HW1 9323   1.376   4.019   4.884  0.5355  1.7278 -0.1099
 3168SOL    HW2 9324   1.323   4.129   4.775  0.5915 -0.3608 -2.3223
 3169SOL     OW 9325   1.013   4.219   4.868  0.0608  0.0564 -0.7515
 3169SOL    HW1 9326   1.105   4.236   4.834  0.3078 -2.1811 -1.3881
 3169SOL    HW2 9327   0.975   4.303   4.907  2.3220  1.0353 -0.5265
 3170SOL     OW 9328   1.406   3.595   3.068  0.4000  0.1001 -0.1840
 3170SOL    HW1 9329   1.419   3.688   3.033  0.3850 -0.0660 -0.6425
 3170SOL    HW2 9330   1.309   3.571   3.061  0.1097  0.6568  1.4952
 3171SOL     OW 9331   2.095   4.847   1.245  0.1748  0.4122 -0.3527
 3171SOL    HW1 9332   2.126   4.798   1.327  1.0111 -1.0451 -1.4897
 3171SOL    HW2 9333   1.995   4.846   1.243  0.1613 -0.5880  0.0609
 3172SOL     OW 9334   4.162   4.905   1.464  0.3260  0.0491 -0.2971
 3172SOL    HW1 9335   4.229   4.912   1.390  0.4809 -1.0558 -0.2811
 3172SOL    HW2 9336   4.207   4.926   1.551  0.5366 -0.2169 -0.3405
 3173SOL     OW 9337   1.075   4.189   2.011  0.0818 -0.3346  0.1036
 3173SOL    HW1 9338   1.168   4.219   2.031  0.6341 -1.5947 -0.4830
 3173SOL    HW2 9339   1.041   4.241   1.932  1.3051 -1.6551 -1.3742
 3174SOL     OW 9340   1.323   0.053   3.167 -0.0084  0.2890 -0.2349
 3174SOL    HW1 9341   1.351   0.118   3.095  2.5662  0.3991  0.7657
 3174SOL    HW2 9342   1.383   0.063   3.246 -0.5278 -2.2774  0.5766
 3175SOL     OW 9343   3.209   4.589   0.703 -0.5294  0.0323  0.0313
 3175SOL    HW1 9344   3.148   4.615   0.778 -0.9773 -0.0775 -0.2862
 3175SOL    HW2 9345   3.289   4.649   0.701 -0.7102  0.2826  0.3553
 3176SOL     OW 9346   4.874   3.931   0.460  0.1699  0.0386  0.0174
 3176SOL    HW1 9347   4.933   3.956   0.536 -0.4431  0.3872  0.3829
 3176SOL    HW2 9348   4.908   3.973   0.375  0.8074 -0.2886  0.1064
 3177SOL     OW 9349   3.047   3.146   4.251 -0.0784 -0.0268 -0.4219
 3177SOL    HW1 9350   3.128   3.125   4.305  0.7055 -0.7275 -1.8138
 3177SOL    HW2 9351   2.971   3.167   4.312  0.8066 -0.6270  0.9410
 3178SOL     OW 9352   0.218   4.238   1.844 -0.0866 -0.1211 -0.2332
 3178SOL    HW1 9353   0.311   4.266   1.868 -0.0525  1.6833 -2.1821
 3178SOL    HW2 9354   0.204   4.249   1.746 -1.2264 -3.9600 -0.6705
 3179SOL     OW 9355   2.743   4.047   1.199 -0.0703 -0.1979  0.1901
 3179SOL    HW1 9356   2.648   4.018   1.184 -0.1640 -0.5068  1.2960
 3179SOL    HW2 9357   2.782   4.079   1.112 -0.6036 -1.7593 -0.6810
 3180SOL     OW 9358   1.380   4.903   4.225  0.0287 -0.4389  0.2959
 3180SOL    HW1 9359   1.382   4.887   4.323 -0.6318  0.0165  0.3863
 3180SOL    HW2 9360   1.462   4.864   4.183  0.0066 -1.2030  0.9378
 3181SOL     OW 9361   3.329   2.653   3.821  0.0367  0.2911 -0.1926
 3181SOL    HW1 9362   3.241   2.641   3.777 -0.3813 -0.6582  0.8675
 3181SOL    HW2 9363   3.382   2.723   3.772 -0.4945 -0.5413 -2.0207
 3182SOL     OW 9364   2.954   4.884   4.955  0.7651  0.0043  0.4708
 3182SOL    HW1 9365   3.046   4.862   4.925  1.1067  0.9136  0.8141
 3182SOL    HW2 9366   2.955   4.969   5.009 -0.2558  0.0005  0.5291
 3183SOL     OW 9367   1.512   4.459   4.087  0.2854 -0.3534 -0.1877
 3183SOL    HW1 9368   1.538   4.555   4.094  2.8738 -1.0734  4.6038
 3183SOL    HW2 9369   1.585   4.408   4.040 -0.2225 -0.2512 -1.1012
 3184SOL     OW 9370   3.457   4.478   0.201 -1.1063  0.2924 -0.2178
 3184SOL    HW1 9371   3.443   4.438   0.291 -2.4604 -0.4811 -0.7423
 3184SOL    HW2 9372   3.534   4.541   0.204 -1.0494  0.1780  1.4400
 3185SOL     OW 9373   3.407   3.591   3.580  0.1825  0.4828 -0.3259
 3185SOL    HW1 9374   3.462   3.550   3.507  0.8308  1.1207 -0.2045
 3185SOL    HW2 9375   3.394   3.524   3.653  1.0922  0.4218 -0.2047
 3186SOL     OW 9376   1.177   0.398   3.699  0.2257 -0.2512  0.0588
 3186SOL    HW1 9377   1.114   0.393   3.776  0.6467  0.5235  0.4632
 3186SOL    HW2 9378   1.156   0.324   3.634 -1.7536  0.5727 -0.3234
 3187SOL     OW 9379   3.585   4.612   1.828  0.0816  0.0545 -0.2650
 3187SOL    HW1 9380   3.596   4.559   1.912  0.2944  1.6837  0.7907
 3187SOL    HW2 9381   3.665   4.598   1.769  0.2095 -0.6592  0.0664
 3188SOL     OW 9382   1.937   3.820   0.969  0.0889  0.1548  0.4376
 3188SOL    HW1 9383   1.872   3.854   0.900  0.7888  0.5370 -0.0474
 3188SOL    HW2 9384   1.980   3.898   1.014  0.2693 -0.1013  0.7081
 3189SOL     OW 9385   1.963   1.266   3.900  0.2781 -0.3290  0.0277
 3189SOL    HW1 9386   1.875   1.288   3.856  1.2453 -0.8444 -2.3246
 3189SOL    HW2 9387   1.974   1.167   3.905 -0.1904 -0.3199  2.3967
 3190SOL     OW 9388   2.703   4.089   4.199  0.2519  0.1536  0.7789
 3190SOL    HW1 9389   2.617   4.046   4.225 -0.6981  1.8113  0.5049
 3190SOL    HW2 9390   2.779   4.027   4.219 -0.8436 -0.6499  2.7298
 3191SOL     OW 9391   2.360   5.008   4.575  0.2367  0.3842 -0.0328
 3191SOL    HW1 9392   2.298   4.933   4.600 -0.7200  1.6766  1.6726
 3191SOL    HW2 9393   2.411   4.982   4.493 -1.4837 -1.3284 -0.6525
 3192SOL     OW 9394   3.565   1.025   2.183 -0.0748 -0.1568 -0.3351
 3192SOL    HW1 9395   3.483   1.073   2.215 -0.3352  0.2454 -1.5626
 3192SOL    HW2 9396   3.646   1.068   2.223 -0.3221  1.1206 -1.1671
 3193SOL     OW 9397   2.521   0.058   2.065 -0.0346 -0.2454 -0.5725
 3193SOL    HW1 9398   2.577   0.138   2.084  0.2430 -0.2504 -1.3160
 3193SOL    HW2 9399   2.432   0.067   2.109  0.2722  0.1131 -0.0175
 3194SOL     OW 9400   3.795   4.766   4.383  0.2675 -0.4956 -0.5935
 3194SOL    HW1 9401   3.874   4.732   4.433 -0.2880 -2.2673 -0.8557
 3194SOL    HW2 9402   3.712   4.746   4.435 -0.1750 -0.7371 -1.3855
 3195SOL     OW 9403   2.651   0.807   1.482  0.4895  0.5254 -0.1386
 3195SOL    HW1 9404   2.722   0.858   1.530  1.0224  0.4346 -0.8046
 3195SOL    HW2 9405   2.679   0.712   1.472 -1.1643 -0.3220  2.4454
 3196SOL     OW 9406   2.894   0.056   0.117 -0.2694  0.0175 -0.4191
 3196SOL    HW1 9407   2.946   0.115   0.056  0.6821 -0.1274  0.2309
 3196SOL    HW2 9408   2.807   0.101   0.141  0.9721  1.7729  1.0782
 3197SOL     OW 9409   2.014   2.396   4.754  0.7407 -0.0062  0.1661
 3197SOL    HW1 9410   1.965   2.475   4.791 -0.3436 -1.2585  1.4963
 3197SOL    HW2 9411   1.983   2.312   4.799  0.0795 -1.5325 -2.8353
 3198SOL     OW 9412   1.447   0.508   2.736  0.1278  0.6492 -0.0683
 3198SOL    HW1 9413   1.538   0.467   2.745  0.3824  1.1644 -0.2579
 3198SOL    HW2 9414   1.398   0.501   2.823  0.1948  0.0130 -0.0811
 3199SOL     OW 9415   1.589   4.375   0.160 -0.0950 -0.0623 -0.0388
 3199SOL    HW1 9416   1.646   4.307   0.206 -0.5909  1.6100  3.3916
 3199SOL    HW2 9417   1.622   4.390   0.067  2.5109 -1.9918  0.4799
 3200SOL     OW 9418   3.001   1.722   3.941 -0.4660 -0.1556 -0.1552
 3200SOL    HW1 9419   2.953   1.808   3.925  0.5962  0.0814 -2.4020
 3200SOL    HW2 9420   3.070   1.735   4.013 -2.1738  0.0521  1.5510
 3201SOL     OW 9421   3.768   2.684   1.693 -0.1313  0.0915  0.3275
 3201SOL    HW1 9422   3.847   2.744   1.683 -0.1985  0.4705  1.8432
 3201SOL    HW2 9423   3.685   2.740   1.702 -0.0784 -0.1311  2.7950
 3202SOL     OW 9424   2.311   4.062   4.048  0.0137 -0.1737 -0.1380
 3202SOL    HW1 9425   2.371   4.017   4.114 -0.5058  0.2475  0.6382
 3202SOL    HW2 9426   2.266   3.992   3.992  3.0228 -0.4577 -2.4280
 3203SOL     OW 9427   2.864   0.119   4.746  0.2922  0.0862 -0.0924
 3203SOL    HW1 9428   2.802   0.043   4.764 -0.2390  0.4458 -0.3934
 3203SOL    HW2 9429   2.815   0.206   4.755  1.3636  0.5125  2.2997
 3204SOL     OW 9430   4.338   2.197   0.107  0.2354 -0.1251 -0.1007
 3204SOL    HW1 9431   4.405   2.222   0.038 -0.5046 -1.2919 -1.2961
 3204SOL    HW2 9432   4.247   2.226   0.078 -0.0317 -0.2834  0.5587
 3205SOL     OW 9433   3.062   0.082   3.986  0.4234  0.8006 -0.0814
 3205SOL    HW1 9434   3.020   0.021   4.054  1.0439 -0.2282 -0.5895
 3205SOL    HW2 9435   2.992   0.111   3.920  0.4206 -0.7434 -0.8077
 3206SOL     OW 9436   2.933   3.992   3.326  0.0714  0.0426  0.2397
 3206SOL    HW1 9437   3.003   3.998   3.255  0.1874  0.2772  0.3735
 3206SOL    HW2 9438   2.977   4.001   3.416  0.0525 -1.1243  0.3851
 3207SOL     OW 9439   1.668   4.597   3.850  0.1824 -0.1765 -0.0203
 3207SOL    HW1 9440   1.680   4.502   3.880  0.4579 -0.4748 -1.0388
 3207SOL    HW2 9441   1.658   4.600   3.751 -2.0271  0.6691  0.1849
 3208SOL     OW 9442   4.050   3.938   0.063  0.4139 -0.4014 -0.4759
 3208SOL    HW1 9443   4.129   3.989   0.098  0.2057 -0.0885 -0.4568
 3208SOL    HW2 9444   4.054   3.844   0.095 -0.2808  0.1113  1.1947
 3209SOL     OW 9445   2.914   2.042   4.177  0.1495 -0.0612 -0.6001
 3209SOL    HW1 9446   2.840   2.066   4.240  0.9476  0.3631  0.2080
 3209SOL    HW2 9447   2.876   1.999   4.095 -1.1064  1.3703 -0.8164
 3210SOL     OW 9448   2.362   0.430   0.344  0.1521 -0.3806  0.1001
 3210SOL    HW1 9449   2.393   0.442   0.249 -0.9758 -2.1545 -0.5324
 3210SOL    HW2 9450   2.427   0.372   0.393  0.7904  0.6219  0.4703
 3211SOL     OW 9451   2.814   2.933   0.098 -0.1704 -0.0241 -0.3940
 3211SOL    HW1 9452   2.913   2.947   0.102 -0.3929  1.5759  0.2467
 3211SOL    HW2 9453   2.769   3.018   0.068 -1.2714 -1.1307 -2.0767
 3212SOL     OW 9454   2.231   4.741   2.908 -0.2869  0.2526  0.0667
 3212SOL    HW1 9455   2.325   4.722   2.934 -1.3347 -1.9859  2.6768
 3212SOL    HW2 9456   2.210   4.695   2.822  0.0675 -2.4084  1.3108
 3213SOL     OW 9457   0.982   3.299   3.175 -0.5940  0.1480 -0.6692
 3213SOL    HW1 9458   0.882   3.296   3.178 -0.5999  0.5075 -0.3054
 3213SOL    HW2 9459   1.018   3.307   3.268 -0.2711  1.0270 -0.8597
 3214SOL     OW 9460   2.265   3.442   0.469  0.2579 -0.2484 -0.2340
 3214SOL    HW1 9461   2.272   3.372   0.540  1.3364  0.0202 -0.0541
 3214SOL    HW2 9462   2.345   3.438   0.409 -0.5808 -0.4076 -1.3962
 3215SOL     OW 9463   3.724   3.758   4.497  0.2174 -0.8679  0.7088
 3215SOL    HW1 9464   3.803   3.784   4.553 -0.2211 -0.6276  1.2218
 3215SOL    HW2 9465   3.685   3.673   4.532 -0.9829  0.0711  1.7381
 3216SOL     OW 9466   2.103   0.793   4.779  0.1036  0.1531  0.4335
 3216SOL    HW1 9467   2.065   0.701   4.787 -1.0518  0.6238  0.5427
 3216SOL    HW2 9468   2.112   0.834   4.870 -0.6273  0.6233  0.3063
 3217SOL     OW 9469   3.271   1.832   0.267 -0.7401 -0.2483  0.2803
 3217SOL    HW1 9470   3.304   1.926   0.276 -0.4449 -0.2672 -0.5368
 3217SOL    HW2 9471   3.256   1.810   0.171 -3.2225 -0.2407  0.5975
 3218SOL     OW 9472   2.745   0.621   4.713  0.2312 -0.0923  0.4519
 3218SOL    HW1 9473   2.820   0.559   4.736 -0.5174 -0.5507  1.7880
 3218SOL    HW2 9474   2.666   0.568   4.684 -0.3454  0.2336  1.3954
 3219SOL     OW 9475   3.787   0.213   0.091  0.7934  0.0624  0.7351
 3219SOL    HW1 9476   3.697   0.192   0.128  0.4669  0.6063  0.2503
 3219SOL    HW2 9477   3.778   0.255   0.001  1.5756 -1.4470 -0.0939
 3220SOL     OW 9478   4.224   4.580   4.245  0.2843  0.6077 -0.2166
 3220SOL    HW1 9479   4.286   4.658   4.233  0.0770  1.1503  1.8765
 3220SOL    HW2 9480   4.239   4.539   4.334 -1.8654  0.2979  0.0598
 3221SOL     OW 9481   1.348   0.916   0.226  0.5811  0.1360  0.1236
 3221SOL    HW1 9482   1.276   0.859   0.186 -0.7892  0.6277  1.7738
 3221SOL    HW2 9483   1.329   1.012   0.207  0.3169  0.3269  1.2756
 3222SOL     OW 9484   0.381   1.238   0.842  0.4370  0.1222  0.2816
 3222SOL    HW1 9485   0.367   1.272   0.935 -0.0406 -0.1267  0.3052
 3222SOL    HW2 9486   0.478   1.244   0.819  0.8385 -1.3035  1.3943
 3223SOL     OW 9487   0.144   1.083   2.660  0.0128 -0.1594 -0.5950
 3223SOL    HW1 9488   0.201   1.153   2.617 -0.6610  0.6713 -0.1662
 3223SOL    HW2 9489   0.181   1.059   2.749  0.4083 -0.5680 -0.8676
 3224SOL     OW 9490   4.606   1.045   0.048  0.0826 -0.1003 -0.0644
 3224SOL    HW1 9491   4.521   1.021   0.001  0.4323 -0.1953 -0.6635
 3224SOL    HW2 9492   4.633   1.138   0.024 -0.9162  0.6997  1.7332
 3225SOL     OW 9493   4.549   1.288   1.034 -0.5734 -0.5332  0.0290
 3225SOL    HW1 9494   4.622   1.278   0.966  0.4660 -2.1242  1.2959
 3225SOL    HW2 9495   4.485   1.358   1.004 -0.8317 -1.9660 -3.1409
 3226SOL     OW 9496   3.540   0.977   4.935  0.1841 -0.4500  0.3121
 3226SOL    HW1 9497   3.608   0.914   4.897  0.4441 -1.5984  2.5497
 3226SOL    HW2 9498   3.587   1.060   4.967 -0.0338  0.5153 -1.7197
 3227SOL     OW 9499   4.487   0.820   0.894 -0.1578  0.2293 -0.1531
 3227SOL    HW1 9500   4.533   0.746   0.845 -0.7739 -1.3487  1.5419
 3227SOL    HW2 9501   4.444   0.882   0.828  1.9393  0.1653 -1.6775
 3228SOL     OW 9502   4.754   1.584   0.488  0.1079  0.6573 -0.2697
 3228SOL    HW1 9503   4.703   1.521   0.430  1.4753 -1.7597  1.0164
 3228SOL    HW2 9504   4.852   1.575   0.470  0.5792 -0.0449  2.1904
 3229SOL     OW 9505   4.365   2.077   1.015  0.2185 -0.4580 -0.3367
 3229SOL    HW1 9506   4.366   1.978   1.029  0.2231 -0.5489 -0.9392
 3229SOL    HW2 9507   4.378   2.097   0.918  0.4492  0.1438 -0.1877
 3230SOL     OW 9508   2.652   0.954   3.423 -0.4452 -0.1400  0.1827
 3230SOL    HW1 9509   2.731   0.979   3.479 -0.8271  0.1391  0.6029
 3230SOL    HW2 9510   2.575   1.015   3.444 -0.8910 -0.6521  0.0524
 3231SOL     OW 9511   2.522   0.111   1.214  0.0545  0.3153 -0.8825
 3231SOL    HW1 9512   2.592   0.041   1.231  0.4372  0.6784 -0.9568
 3231SOL    HW2 9513   2.553   0.173   1.142  0.5122  1.6410  0.4165
 3232SOL     OW 9514   0.034   0.560   0.860 -0.2933  0.5736  0.0720
 3232SOL    HW1 9515   0.067   0.568   0.954 -1.2777 -0.2402  0.5141
 3232SOL    HW2 9516   0.047   0.646   0.812 -2.2171  1.9305  1.7901
 3233SOL     OW 9517   4.831   1.927   0.099  0.6914 -0.2390  0.2340
 3233SOL    HW1 9518   4.855   1.885   0.011 -0.4146  0.0448 -0.2218
 3233SOL    HW2 9519   4.744   1.889   0.132  0.0012  1.1798  0.1288
 3234SOL     OW 9520   3.094   0.808   4.763  0.0725  0.8042 -0.7421
 3234SOL    HW1 9521   3.135   0.878   4.822 -0.9092  0.4268  0.4245
 3234SOL    HW2 9522   3.007   0.841   4.728 -0.4212  0.1776 -0.1469
 3235SOL     OW 9523   4.054   2.869   1.156  0.1262  0.4282  0.2267
 3235SOL    HW1 9524   4.000   2.823   1.085  1.6080 -1.0656  0.0045
 3235SOL    HW2 9525   4.011   2.855   1.245 -0.1287 -0.3213 -0.0015
 3236SOL     OW 9526   4.821   1.304   1.487 -1.0464 -0.5045  0.2621
 3236SOL    HW1 9527   4.772   1.307   1.400 -1.0311 -1.6390  0.2054
 3236SOL    HW2 9528   4.917   1.282   1.471 -0.2704  2.4026  0.3061
 3237SOL     OW 9529   4.679   1.345   0.788  0.3628 -0.3443 -0.1266
 3237SOL    HW1 9530   4.778   1.349   0.791  0.3557  1.3390 -0.9547
 3237SOL    HW2 9531   4.643   1.428   0.745 -1.4417 -0.5742  0.8248
 3238SOL     OW 9532   4.525   1.088   2.626  0.0917  0.2167 -0.9816
 3238SOL    HW1 9533   4.450   1.061   2.565 -0.3504  0.2915 -0.4700
 3238SOL    HW2 9534   4.491   1.098   2.719  0.9595 -0.8804 -0.5245
 3239SOL     OW 9535   0.296   0.487   1.638  0.1127  0.1848  0.2222
 3239SOL    HW1 9536   0.363   0.413   1.639 -0.8959 -0.7537  1.0625
 3239SOL    HW2 9537   0.272   0.509   1.543 -0.3863 -1.3451 -0.0413
 3240SOL     OW 9538   5.001   0.745   1.712  0.0888 -0.0747 -0.1040
 3240SOL    HW1 9539   4.908   0.712   1.729  0.2201 -0.7702 -0.7165
 3240SOL    HW2 9540   4.997   0.841   1.683 -0.3493  0.2319  0.8910
 3241SOL     OW 9541   3.513   2.326   1.890  0.1371 -0.3378 -0.1145
 3241SOL    HW1 9542   3.589   2.389   1.874  0.2587 -0.3244  0.4690
 3241SOL    HW2 9543   3.430   2.361   1.848  0.7139 -0.9686 -1.8540
 3242SOL     OW 9544   2.605   4.229   3.455  0.0573  0.0731  0.3346
 3242SOL    HW1 9545   2.643   4.285   3.528  1.4541 -0.4563  0.0368
 3242SOL    HW2 9546   2.675   4.212   3.385 -0.4466 -1.6766  0.2071
 3243SOL     OW 9547   4.363   0.585   1.541  0.0871 -0.5296  0.1528
 3243SOL    HW1 9548   4.329   0.501   1.584  0.6318 -0.3249  1.0190
 3243SOL    HW2 9549   4.432   0.561   1.473  0.8285 -0.7756  0.9591
 3244SOL     OW 9550   0.994   4.781   1.642  0.2586  0.3377  0.1216
 3244SOL    HW1 9551   1.035   4.720   1.711  1.4321  0.3137 -0.5834
 3244SOL    HW2 9552   0.903   4.808   1.673  0.7100  0.2361  1.6395
 3245SOL     OW 9553   4.333   4.987   1.676 -0.0122 -0.4330 -0.3539
 3245SOL    HW1 9554   4.426   4.979   1.640 -1.0109 -0.8433 -3.1009
 3245SOL    HW2 9555   4.295   5.076   1.652 -1.3253 -1.3822 -1.9797
 3246SOL     OW 9556   4.762   0.775   4.928  0.0626  0.0278  0.5959
 3246SOL    HW1 9557   4.694   0.725   4.876  2.3933 -0.5717 -2.1011
 3246SOL    HW2 9558   4.734   0.871   4.937 -0.6467  0.0595 -1.4473
 3247SOL     OW 9559   4.818   4.779   4.839 -0.6368  0.1808  0.1576
 3247SOL    HW1 9560   4.757   4.760   4.762  2.3067  1.6201 -2.7893
 3247SOL    HW2 9561   4.791   4.866   4.882 -3.6724 -1.6765  2.5055
 3248SOL     OW 9562   4.747   0.410   4.630 -0.0745 -0.4490  0.4793
 3248SOL    HW1 9563   4.819   0.454   4.684  0.4360 -0.3689 -0.2489
 3248SOL    HW2 9564   4.723   0.469   4.553  1.4601 -1.9023 -1.2127
 3249SOL     OW 9565   4.110   0.778   1.817 -0.2483  0.1883  0.1349
 3249SOL    HW1 9566   4.159   0.821   1.893  3.2328 -0.9238 -1.2724
 3249SOL    HW2 9567   4.128   0.829   1.733 -1.2193 -0.5000 -0.5055
 3250SOL     OW 9568   4.578   0.891   1.132  0.0291 -0.7543 -0.0071
 3250SOL    HW1 9569   4.550   0.852   1.044 -1.0936 -0.2170  0.0936
 3250SOL    HW2 9570   4.522   0.971   1.153  1.6750  0.3935  0.2267
 3251SOL     OW 9571   2.679   1.529   4.947 -0.6478 -0.0316 -0.4758
 3251SOL    HW1 9572   2.773   1.521   4.979 -0.5234  1.9324 -0.2326
 3251SOL    HW2 9573   2.672   1.491   4.855  0.1168 -1.1768 -0.0837
 3252SOL     OW 9574   4.642   1.968   1.086  0.0100  0.3171 -0.2112
 3252SOL    HW1 9575   4.673   1.881   1.123  1.2144 -0.2600 -2.3612
 3252SOL    HW2 9576   4.586   2.016   1.153  2.4916 -0.3355  2.5162
 3253SOL     OW 9577   0.095   3.144   4.346 -0.1916 -0.0378  0.0011
 3253SOL    HW1 9578   0.044   3.205   4.407 -0.2452  1.5601 -1.5629
 3253SOL    HW2 9579   0.034   3.110   4.275  0.4578  0.2860 -0.7231
 3254SOL     OW 9580   3.800   2.559   0.170  0.5151  0.1920 -0.2758
 3254SOL    HW1 9581   3.783   2.512   0.257  2.2236 -1.2864 -0.6882
 3254SOL    HW2 9582   3.713   2.596   0.135 -1.1609 -3.3135 -0.2827
 3255SOL     OW 9583   2.136   1.338   3.703  0.4270  0.0063 -0.2061
 3255SOL    HW1 9584   2.065   1.309   3.767  1.7189  0.0621  1.3207
 3255SOL    HW2 9585   2.208   1.269   3.700  1.0186  0.6288 -0.5770
 3256SOL     OW 9586   2.954   0.288   4.298  0.0592 -0.5151  0.3348
 3256SOL    HW1 9587   2.939   0.207   4.354  1.6071 -0.6431  0.6252
 3256SOL    HW2 9588   3.029   0.342   4.337  1.6720 -0.9649 -1.9199
 3257SOL     OW 9589   4.022   2.232   2.089 -0.2152 -0.1178 -0.3103
 3257SOL    HW1 9590   3.966   2.313   2.072 -0.9685 -0.8466 -1.4079
 3257SOL    HW2 9591   4.119   2.255   2.079 -0.4565  0.4951 -1.3038
 3258SOL     OW 9592   0.464   1.295   4.706 -0.7811  0.0666  0.3714
 3258SOL    HW1 9593   0.500   1.292   4.612 -2.8406 -0.7243 -0.4642
 3258SOL    HW2 9594   0.516   1.361   4.759 -0.3762  1.5458 -1.7114
 3259SOL     OW 9595   3.456   4.258   1.958 -0.0399 -0.1047  0.7811
 3259SOL    HW1 9596   3.530   4.317   1.991  0.6180 -0.4171 -0.0744
 3259SOL    HW2 9597   3.471   4.165   1.992  0.5807 -0.4034 -0.2899
 3260SOL     OW 9598   0.359   0.923   0.814 -0.3663 -0.4362  0.2126
 3260SOL    HW1 9599   0.444   0.881   0.844  0.4721  0.4084 -0.8953
 3260SOL    HW2 9600   0.376   1.017   0.787 -1.9936  0.2777  1.5328
 3261SOL     OW 9601   0.588   1.819   1.624  0.4745  0.1863  0.1541
 3261SOL    HW1 9602   0.496   1.848   1.648  0.3028  0.3857 -0.6972
 3261SOL    HW2 9603   0.652   1.896   1.637  0.1636  0.7184 -1.2526
 3262SOL     OW 9604   3.926   0.504   4.871  0.1558  0.3044  0.2701
 3262SOL    HW1 9605   3.948   0.497   4.968  1.4630  0.7482  0.0326
 3262SOL    HW2 9606   3.852   0.441   4.848 -0.4296  0.4784  1.6233
 3263SOL     OW 9607   4.368   2.237   0.380  0.2208 -0.0170  0.5269
 3263SOL    HW1 9608   4.330   2.233   0.287 -0.0600  1.8553  0.5076
 3263SOL    HW2 9609   4.433   2.162   0.393  1.2073  0.3588 -1.6333
 3264SOL     OW 9610   4.911   4.317   0.103  0.5547  0.1213  0.0065
 3264SOL    HW1 9611   4.884   4.244   0.041 -0.2254  0.4885 -0.1028
 3264SOL    HW2 9612   4.876   4.296   0.195  1.4487 -0.2742  0.2669
 3265SOL     OW 9613   4.224   4.708   0.528 -0.0288 -0.8203 -0.4434
 3265SOL    HW1 9614   4.158   4.763   0.578  1.3230  0.9503 -0.5132
 3265SOL    HW2 9615   4.251   4.756   0.444  1.7358 -1.2105 -0.1454
 3266SOL     OW 9616   0.027   2.474   3.610  0.2075 -0.2130 -0.1710
 3266SOL    HW1 9617   0.084   2.451   3.688  0.6111  0.4768 -0.2554
 3266SOL    HW2 9618  -0.048   2.533   3.639  0.0787 -0.3472 -0.2263
 3267SOL     OW 9619   4.844   3.470   0.953 -0.0367 -0.1434 -0.2696
 3267SOL    HW1 9620   4.866   3.375   0.928  0.8236 -0.6378  2.0843
 3267SOL    HW2 9621   4.849   3.528   0.871  2.1216 -1.6687 -1.3387
 3268SOL     OW 9622   4.117   3.121   4.420  0.0722 -0.1260  0.2192
 3268SOL    HW1 9623   4.145   3.057   4.490 -0.9834 -0.4296  0.3776
 3268SOL    HW2 9624   4.094   3.209   4.462  2.3551  0.6824 -0.0822
 3269SOL     OW 9625   1.739   2.679   1.331 -0.1195  0.4128  0.0507
 3269SOL    HW1 9626   1.744   2.745   1.256  0.4221 -0.9410 -1.1751
 3269SOL    HW2 9627   1.673   2.608   1.308  0.8886 -0.6424  0.3084
 3270SOL     OW 9628   0.656   1.040   1.444  0.2798  0.0506 -0.1171
 3270SOL    HW1 9629   0.652   1.023   1.345  0.5591  0.8016 -0.2653
 3270SOL    HW2 9630   0.746   1.013   1.479  1.6288  3.1700 -0.7776
 3271SOL     OW 9631   4.598   0.542   3.560  0.2052 -0.0551  0.6142
 3271SOL    HW1 9632   4.547   0.574   3.640  0.0479 -0.6737  0.7691
 3271SOL    HW2 9633   4.672   0.481   3.591  0.1810 -0.2476  0.2896
 3272SOL     OW 9634   0.046   1.471   1.595 -0.2467  0.2793 -0.4585
 3272SOL    HW1 9635   0.026   1.407   1.520 -0.6838 -0.1796  0.0418
 3272SOL    HW2 9636  -0.040   1.504   1.634 -0.0289  1.3646 -0.8619
 3273SOL     OW 9637   4.858   4.639   1.142  0.1735  0.0815 -0.3217
 3273SOL    HW1 9638   4.860   4.583   1.060 -0.3222 -0.1877 -0.1549
 3273SOL    HW2 9639   4.865   4.581   1.223  0.7680  0.3529 -0.1742
 3274SOL     OW 9640   0.097   1.204   4.863 -0.7438 -0.4038 -0.2568
 3274SOL    HW1 9641   0.182   1.169   4.902 -0.8331 -1.7422 -1.2367
 3274SOL    HW2 9642   0.019   1.154   4.901 -1.3263  1.9236  1.9550
 3275SOL     OW 9643   0.769   2.175   1.039 -0.1273  0.5458 -0.3111
 3275SOL    HW1 9644   0.761   2.274   1.031 -0.0239  0.5338 -0.5756
 3275SOL    HW2 9645   0.678   2.135   1.051 -0.0315  0.8172  1.6264
 3276SOL     OW 9646   4.683   2.496   4.668 -0.6501  0.8279  0.3349
 3276SOL    HW1 9647   4.682   2.398   4.651 -2.4180  0.9964 -0.7084
 3276SOL    HW2 9648   4.752   2.540   4.610  0.4958  0.1741  1.1677
 3277SOL     OW 9649   3.504   1.992   4.935  0.6899  0.7803 -0.9765
 3277SOL    HW1 9650   3.584   1.935   4.920 -0.1398 -0.2408 -1.6480
 3277SOL    HW2 9651   3.527   2.066   4.998  2.3861  1.0147 -1.8105
 3278SOL     OW 9652   4.270   1.083   0.832  0.3142  0.3826 -0.0121
 3278SOL    HW1 9653   4.185   1.044   0.867 -0.0125  0.6676 -0.4683
 3278SOL    HW2 9654   4.342   1.076   0.901 -0.5088  1.6742  1.0312
 3279SOL     OW 9655   4.622   4.836   1.757 -0.1345  0.0858 -0.1576
 3279SOL    HW1 9656   4.680   4.832   1.838 -0.7712 -0.1743  0.2870
 3279SOL    HW2 9657   4.586   4.744   1.737  1.2010 -0.1748 -1.6041
 3280SOL     OW 9658   0.955   2.186   3.213  0.3171 -0.0829  0.7157
 3280SOL    HW1 9659   0.896   2.157   3.288 -0.0658  0.3387  0.5837
 3280SOL    HW2 9660   0.904   2.182   3.127  0.5767 -0.0207  0.5569
 3281SOL     OW 9661   4.924   4.931   2.328  0.5755  0.4777  0.9449
 3281SOL    HW1 9662   4.858   4.909   2.400  0.0604 -1.9804 -0.1569
 3281SOL    HW2 9663   5.016   4.906   2.358  0.4806  0.2920  1.0865
 3282SOL     OW 9664   3.867   4.673   1.207  0.4591  0.3721 -1.0227
 3282SOL    HW1 9665   3.936   4.604   1.189  2.1044  1.4598  0.7233
 3282SOL    HW2 9666   3.902   4.763   1.178  0.5030  1.1701  1.3106
 3283SOL     OW 9667   3.904   1.070   0.677  0.0251 -0.3657  1.0002
 3283SOL    HW1 9668   3.957   1.051   0.760  0.4384 -1.6365  0.4721
 3283SOL    HW2 9669   3.952   1.033   0.598 -0.2737  0.9970  0.1544
 3284SOL     OW 9670   3.171   1.276   4.132 -0.9474  0.4692  0.3104
 3284SOL    HW1 9671   3.146   1.292   4.228  2.7527  0.1535  1.4886
 3284SOL    HW2 9672   3.193   1.363   4.089 -0.7540  0.4366  0.3432
 3285SOL     OW 9673   4.616   1.641   2.140  0.2164 -0.2807 -0.2831
 3285SOL    HW1 9674   4.549   1.574   2.110  1.0810 -1.0582 -0.5172
 3285SOL    HW2 9675   4.629   1.635   2.239  0.2040 -0.3819 -0.2880
 3286SOL     OW 9676   4.402   0.646   0.496  0.0087  0.6178 -0.1159
 3286SOL    HW1 9677   4.459   0.605   0.568  2.6272  2.1648 -1.1636
 3286SOL    HW2 9678   4.345   0.575   0.455 -0.6422 -0.5638  2.5612
 3287SOL     OW 9679   0.481   0.610   2.814  0.6744 -0.1099  0.1955
 3287SOL    HW1 9680   0.544   0.672   2.766  1.7190 -0.9556  0.4352
 3287SOL    HW2 9681   0.455   0.536   2.752  1.8424 -1.0779  0.8206
 3288SOL     OW 9682   5.001   2.084   0.278  0.2741  0.4525 -0.0930
 3288SOL    HW1 9683   4.958   2.003   0.238 -0.7432  1.1053 -0.3557
 3288SOL    HW2 9684   4.972   2.093   0.374  0.2315  0.6057 -0.1201
 3289SOL     OW 9685   4.294   1.248   4.520  0.0190  0.0850  0.0150
 3289SOL    HW1 9686   4.281   1.310   4.443 -0.4251 -0.5708 -0.4359
 3289SOL    HW2 9687   4.293   1.153   4.488 -0.3295 -0.1990  0.8470
 3290SOL     OW 9688   0.200   1.679   0.601 -0.7457 -0.2293  0.2822
 3290SOL    HW1 9689   0.169   1.632   0.684  0.6053 -0.4248  0.7012
 3290SOL    HW2 9690   0.169   1.774   0.603 -0.7907 -0.2500  0.9801
 3291SOL     OW 9691   2.738   2.711   1.070 -0.0315  0.1177  0.0814
 3291SOL    HW1 9692   2.644   2.728   1.100  0.0180  1.3292 -0.4268
 3291SOL    HW2 9693   2.800   2.727   1.147 -0.1410  0.4576  0.1002
 3292SOL     OW 9694   4.119   0.548   2.806  0.1730 -0.4478  0.7518
 3292SOL    HW1 9695   4.110   0.480   2.734  0.6534 -0.6115  0.8403
 3292SOL    HW2 9696   4.202   0.603   2.790 -0.7766  0.8578  0.0683
 3293SOL     OW 9697   3.292   1.943   3.906  0.0807 -0.0795  0.0454
 3293SOL    HW1 9698   3.236   1.949   3.823 -0.4647 -1.6782  0.2500
 3293SOL    HW2 9699   3.300   2.033   3.948 -0.3375  0.6072 -1.2845
 3294SOL     OW 9700   4.742   1.564   0.986  1.2682 -0.1844 -0.4179
 3294SOL    HW1 9701   4.684   1.554   0.905  1.4527 -1.1479 -0.4447
 3294SOL    HW2 9702   4.691   1.609   1.059  0.9245  0.1971 -0.8888
 3295SOL     OW 9703   3.913   0.895   4.707  0.0562 -0.0647  0.4996
 3295SOL    HW1 9704   3.955   0.957   4.640  0.9425  1.1262  2.0685
 3295SOL    HW2 9705   3.978   0.822   4.730  0.4667  0.5382  1.3230
 3296SOL     OW 9706   3.393   0.524   0.290  0.0383 -0.0386  0.2030
 3296SOL    HW1 9707   3.483   0.495   0.321  0.1798 -1.8191 -1.6840
 3296SOL    HW2 9708   3.325   0.504   0.360  0.9856  0.7737  1.3962
 3297SOL     OW 9709   0.517   4.053   2.294  0.2748  0.2638  0.6701
 3297SOL    HW1 9710   0.477   4.121   2.355 -0.4268 -0.8256  1.4618
 3297SOL    HW2 9711   0.570   3.988   2.347  0.7757  0.0685 -0.0542
 3298SOL     OW 9712   1.368   1.792   1.795  0.1267 -0.4806  0.1412
 3298SOL    HW1 9713   1.312   1.867   1.830 -0.3349 -0.3215 -0.9082
 3298SOL    HW2 9714   1.350   1.779   1.698  0.9064 -1.3347  0.0941
 3299SOL     OW 9715   3.722   0.805   4.859 -0.0607 -0.2754 -0.7590
 3299SOL    HW1 9716   3.730   0.706   4.870  0.6026 -0.2088 -0.5493
 3299SOL    HW2 9717   3.789   0.836   4.792  0.7068  0.1897  0.1860
 3300SOL     OW 9718   3.475   1.380   3.209  0.5003  0.0874  0.0530
 3300SOL    HW1 9719   3.465   1.319   3.130  0.9413 -1.0986  0.8862
 3300SOL    HW2 9720   3.480   1.475   3.177  0.8567 -0.3781 -1.3579
 3301SOL     OW 9721   4.330   4.165   0.919 -0.1410 -0.1002 -0.0861
 3301SOL    HW1 9722   4.358   4.071   0.901 -0.5383 -0.0418 -1.0579
 3301SOL    HW2 9723   4.272   4.168   1.000  0.2804 -0.6137  0.2412
 3302SOL     OW 9724   2.575   1.702   4.555  0.5405 -0.4676  0.3543
 3302SOL    HW1 9725   2.651   1.657   4.602 -0.2415  0.3167  2.4513
 3302SOL    HW2 9726   2.558   1.792   4.596 -0.6890 -0.0738 -0.9398
 3303SOL     OW 9727   0.226   4.821   1.500  0.1318 -0.1012  0.6245
 3303SOL    HW1 9728   0.128   4.799   1.505 -0.2109  1.5058  1.7214
 3303SOL    HW2 9729   0.263   4.826   1.592  1.2365 -0.5385  0.2153
 3304SOL     OW 9730   0.976   2.186   0.202 -0.0459 -0.0070 -0.0392
 3304SOL    HW1 9731   0.952   2.088   0.200 -0.6032  0.1320 -0.3543
 3304SOL    HW2 9732   1.014   2.209   0.291  0.8061 -0.6827 -0.2157
 3305SOL     OW 9733   3.769   2.092   4.714 -0.2670  0.2339 -0.0833
 3305SOL    HW1 9734   3.741   2.040   4.634 -1.0024  0.6732 -0.1195
 3305SOL    HW2 9735   3.695   2.154   4.741  0.1287  0.3842  0.6853
 3306SOL     OW 9736   4.472   4.324   1.727 -1.2354 -0.0351 -0.2838
 3306SOL    HW1 9737   4.476   4.372   1.639  0.8887  0.7597  0.1653
 3306SOL    HW2 9738   4.401   4.254   1.724  0.0517 -1.3947 -3.3506
 3307SOL     OW 9739   1.679   4.969   1.387  0.4987 -0.6424  0.3283
 3307SOL    HW1 9740   1.689   5.066   1.409  1.8944 -0.8666  0.7789
 3307SOL    HW2 9741   1.602   4.931   1.438 -0.2912  0.3072 -0.1389
 3308SOL     OW 9742   4.089   1.800   0.726 -0.1466  0.5183 -0.2112
 3308SOL    HW1 9743   4.020   1.739   0.765 -0.1354  0.6698  0.0434
 3308SOL    HW2 9744   4.179   1.759   0.734 -0.0339  0.9318  0.7119
 3309SOL     OW 9745   3.742   1.273   0.967 -0.2799 -0.2386  0.0407
 3309SOL    HW1 9746   3.718   1.178   0.947 -1.9364 -0.3852  2.3385
 3309SOL    HW2 9747   3.735   1.289   1.066  1.5724  1.8694 -0.0927
 3310SOL     OW 9748   3.159   4.584   1.983  0.3063  0.9608 -0.1792
 3310SOL    HW1 9749   3.232   4.532   2.028 -0.3508 -0.0989 -0.3115
 3310SOL    HW2 9750   3.199   4.643   1.913  1.1751  1.4578  0.6939
 3311SOL     OW 9751   0.252   1.750   4.606  0.4073  0.4721  0.2557
 3311SOL    HW1 9752   0.289   1.786   4.520 -1.8158 -0.6066 -1.2360
 3311SOL    HW2 9753   0.273   1.653   4.614  0.3247  0.4950  0.7981
 3312SOL     OW 9754   5.013   1.682   1.033 -0.3200  0.0060 -0.3508
 3312SOL    HW1 9755   4.926   1.633   1.025  0.1420 -0.9181  0.1084
 3312SOL    HW2 9756   5.055   1.662   1.121  0.4925  0.2189 -0.6771
 3313SOL     OW 9757   4.485   3.933   0.951 -0.3844  0.2352 -0.6169
 3313SOL    HW1 9758   4.570   3.945   1.002 -1.4572 -1.9432  1.9422
 3313SOL    HW2 9759   4.505   3.909   0.856  1.7631  1.7718 -0.6034
 3314SOL     OW 9760   0.313   0.823   1.717  0.1769  0.2333  0.1407
 3314SOL    HW1 9761   0.263   0.736   1.723  0.9132 -0.1109  2.2106
 3314SOL    HW2 9762   0.325   0.860   1.809  1.0070  1.8918 -0.6031
 3315SOL     OW 9763   1.293   1.306   2.175 -0.1097  0.0127 -0.7832
 3315SOL    HW1 9764   1.347   1.275   2.253 -0.2390 -1.3433 -1.2161
 3315SOL    HW2 9765   1.350   1.304   2.092 -0.5787 -0.6624 -1.1022
 3316SOL     OW 9766   4.552   0.591   0.725 -0.2622  0.2176  0.3772
 3316SOL    HW1 9767   4.650   0.603   0.707 -0.3592 -0.5036 -0.6717
 3316SOL    HW2 9768   4.537   0.503   0.770 -0.5190 -0.1212 -0.3522
 3317SOL     OW 9769   3.562   1.548   4.871 -0.3547  0.3014 -0.8700
 3317SOL    HW1 9770   3.628   1.621   4.856  1.9151 -1.2378  0.8564
 3317SOL    HW2 9771   3.610   1.460   4.875 -2.6180 -0.9900 -0.0895
 3318SOL     OW 9772   3.985   1.466   0.450  0.0375 -0.3318  0.0740
 3318SOL    HW1 9773   3.924   1.397   0.489  0.1537  0.0399  0.9385
 3318SOL    HW2 9774   3.953   1.557   0.476  0.5216 -0.1002 -0.1245
 3319SOL     OW 9775   3.122   0.775   3.909 -0.7035  0.3109  0.1210
 3319SOL    HW1 9776   3.167   0.846   3.965  0.6929 -0.5598  0.1506
 3319SOL    HW2 9777   3.146   0.789   3.813 -3.4030  2.0316 -0.4013
 3320SOL     OW 9778   1.968   0.186   4.876 -0.2004  0.1996 -0.1302
 3320SOL    HW1 9779   2.022   0.253   4.927  0.1770 -1.8169  2.3290
 3320SOL    HW2 9780   1.985   0.196   4.778  2.6625  1.2901  0.3968
 3321SOL     OW 9781   0.128   4.777   2.654  0.6500 -0.3490 -0.8409
 3321SOL    HW1 9782   0.148   4.765   2.556  2.9856 -0.2583 -0.4411
 3321SOL    HW2 9783   0.201   4.831   2.696 -1.0246  0.8041  0.7168
 3322SOL     OW 9784   3.573   2.213   4.382  0.4964 -0.4327  0.0808
 3322SOL    HW1 9785   3.497   2.156   4.349 -0.1486  0.3571  0.1678
 3322SOL    HW2 9786   3.648   2.154   4.412 -0.6370 -1.2970  1.3501
 3323SOL     OW 9787   4.804   1.329   2.413  0.3012 -0.3117 -0.3275
 3323SOL    HW1 9788   4.784   1.245   2.464  1.0031  0.2215  0.8515
 3323SOL    HW2 9789   4.833   1.305   2.320  2.2806 -1.4900  0.5375
 3324SOL     OW 9790   3.667   4.933   2.418 -0.4223  0.0718 -0.0063
 3324SOL    HW1 9791   3.608   4.907   2.342 -0.6951 -1.1243  0.5844
 3324SOL    HW2 9792   3.761   4.903   2.399 -0.4790 -0.1748  0.0944
 3325SOL     OW 9793   4.646   0.225   1.897 -0.3974 -0.0956  0.4667
 3325SOL    HW1 9794   4.744   0.209   1.903 -0.3143  0.5751  1.1649
 3325SOL    HW2 9795   4.622   0.255   1.805 -0.1451 -1.4247 -0.0512
 3326SOL     OW 9796   4.199   0.999   4.080  0.0634 -0.4471  0.2965
 3326SOL    HW1 9797   4.149   1.032   4.161 -0.1430  1.2818 -0.4890
 3326SOL    HW2 9798   4.188   1.065   4.006  1.2592 -1.4142 -0.7694
 3327SOL     OW 9799   3.370   0.572   0.728  0.3218  0.5275 -0.1587
 3327SOL    HW1 9800   3.316   0.566   0.812 -2.1423  2.6868 -1.3879
 3327SOL    HW2 9801   3.443   0.639   0.740  0.0242  0.7779  0.2852
 3328SOL     OW 9802   0.671   4.966   3.618 -0.3593  0.2584  0.0011
 3328SOL    HW1 9803   0.735   4.900   3.658 -1.4389  0.0322  1.4506
 3328SOL    HW2 9804   0.588   4.920   3.590 -0.3881  0.7318 -0.7078
 3329SOL     OW 9805   3.730   2.537   1.941 -0.2765  0.0167 -0.5107
 3329SOL    HW1 9806   3.754   2.566   1.848  0.0358 -2.4577 -1.2908
 3329SOL    HW2 9807   3.814   2.514   1.991 -0.2912  2.8611  1.0481
 3330SOL     OW 9808   4.979   0.524   2.269  0.1507  0.1211 -0.1041
 3330SOL    HW1 9809   4.942   0.449   2.214  0.7770 -2.1504  2.3746
 3330SOL    HW2 9810   4.907   0.591   2.286 -0.8626 -0.6763 -1.0959
 3331SOL     OW 9811   3.727   4.085   3.916  0.8470 -0.5210 -0.1125
 3331SOL    HW1 9812   3.713   4.041   3.827 -0.6693 -0.1078 -0.0953
 3331SOL    HW2 9813   3.644   4.132   3.944  1.8607  0.8802  0.6965
 3332SOL     OW 9814   3.247   0.997   0.643 -0.6316  0.0905  0.4561
 3332SOL    HW1 9815   3.153   0.963   0.651 -2.0966  3.8831  1.3969
 3332SOL    HW2 9816   3.289   1.001   0.733 -0.3979  0.4924  0.3334
 3333SOL     OW 9817   4.136   0.442   1.168  0.0117 -0.2484  0.0112
 3333SOL    HW1 9818   4.124   0.454   1.267  2.4252 -0.8770  0.4520
 3333SOL    HW2 9819   4.137   0.344   1.147  2.1438 -0.2430 -0.1676
 3334SOL     OW 9820   1.331   0.876   1.282  0.2472 -0.2809  0.8403
 3334SOL    HW1 9821   1.407   0.839   1.228  0.7061  0.5806  0.8778
 3334SOL    HW2 9822   1.297   0.960   1.239 -0.3677 -0.3932  1.0912
 3335SOL     OW 9823   4.465   1.762   1.393 -0.5121 -0.3505  0.1973
 3335SOL    HW1 9824   4.371   1.787   1.415 -0.5655 -1.2795  1.0877
 3335SOL    HW2 9825   4.489   1.678   1.440  0.4470 -0.6704 -0.8266
 3336SOL     OW 9826   1.704   0.781   2.245  0.1869 -0.6752  0.0269
 3336SOL    HW1 9827   1.733   0.752   2.154  0.9203 -0.6533  0.2539
 3336SOL    HW2 9828   1.671   0.876   2.240  0.5508 -0.5565 -0.1492
 3337SOL     OW 9829   1.642   0.552   0.740  0.4180 -0.3668  0.2736
 3337SOL    HW1 9830   1.712   0.552   0.812  0.3414  0.1244  0.3515
 3337SOL    HW2 9831   1.676   0.600   0.660 -0.5228  1.6494  1.0184
 3338SOL     OW 9832   3.116   4.989   0.429 -0.5658  0.2940  0.2156
 3338SOL    HW1 9833   3.041   4.946   0.378 -0.8337  1.2494 -0.2074
 3338SOL    HW2 9834   3.103   5.088   0.431  0.3671  0.4182  0.6616
 3339SOL     OW 9835   3.928   1.203   1.639  0.5211 -0.1104  0.0982
 3339SOL    HW1 9836   3.936   1.145   1.558 -0.7775  0.5931 -0.5579
 3339SOL    HW2 9837   3.837   1.193   1.679 -0.1770  2.3215 -0.7267
 3340SOL     OW 9838   3.097   0.031   2.474 -0.3969 -0.3390 -0.6826
 3340SOL    HW1 9839   3.000   0.056   2.471 -0.1419  1.0523  1.2281
 3340SOL    HW2 9840   3.119  -0.011   2.562  0.9294  0.3352 -0.6568
 3341SOL     OW 9841   0.447   0.394   1.312 -0.5477 -0.3807 -0.4499
 3341SOL    HW1 9842   0.469   0.335   1.390 -0.8501  0.2455  0.1171
 3341SOL    HW2 9843   0.492   0.482   1.324 -1.9184  0.3011 -0.1559
 3342SOL     OW 9844   3.773   1.653   0.087 -0.0546 -0.0456  0.5585
 3342SOL    HW1 9845   3.778   1.753   0.091  0.4485  0.0032 -0.6931
 3342SOL    HW2 9846   3.718   1.619   0.162 -1.3179  1.2679  0.2672
 3343SOL     OW 9847   0.203   2.120   4.864 -0.4833 -0.3278  0.1189
 3343SOL    HW1 9848   0.266   2.131   4.942  0.9319  0.1973 -1.0540
 3343SOL    HW2 9849   0.115   2.161   4.887  0.4092  1.2638  0.8940
 3344SOL     OW 9850   0.486   0.273   1.563  0.3075  0.1636 -0.6071
 3344SOL    HW1 9851   0.450   0.192   1.611 -0.7012 -0.9120 -3.0115
 3344SOL    HW2 9852   0.537   0.330   1.627 -0.1249 -1.6696  1.4801
 3345SOL     OW 9853   4.331   1.801   1.031 -0.9378 -0.1104 -0.1996
 3345SOL    HW1 9854   4.243   1.754   1.033 -1.0629  0.1285  0.0410
 3345SOL    HW2 9855   4.405   1.734   1.028 -1.0783 -0.3527  1.1344
 3346SOL     OW 9856   0.938   4.184   0.589  0.4825  0.0765 -0.1725
 3346SOL    HW1 9857   0.921   4.282   0.585  0.1790  0.0422  0.1789
 3346SOL    HW2 9858   1.027   4.167   0.631  0.8818  0.2228 -0.9448
 3347SOL     OW 9859   3.009   1.696   1.395 -0.2346  0.5570  0.2981
 3347SOL    HW1 9860   3.018   1.741   1.306  1.5295 -0.7234 -0.2530
 3347SOL    HW2 9861   3.020   1.763   1.468  1.7280  1.1772 -0.4821
 3348SOL     OW 9862   0.583   4.528   2.103 -0.1483  0.1664 -0.6908
 3348SOL    HW1 9863   0.620   4.456   2.044 -0.4821  0.1851 -0.9307
 3348SOL    HW2 9864   0.485   4.511   2.117 -0.8780  1.9736 -2.9115
 3349SOL     OW 9865   4.935   0.711   1.176  0.0174 -0.1782  0.0764
 3349SOL    HW1 9866   4.905   0.620   1.207 -3.5523  1.1666  1.0414
 3349SOL    HW2 9867   4.953   0.769   1.255 -0.7955  0.8187 -0.4402
 3350SOL     OW 9868   1.928   0.998   3.920  0.3462 -0.1295  0.0167
 3350SOL    HW1 9869   1.907   0.956   3.832  1.3345 -0.1185 -0.2361
 3350SOL    HW2 9870   1.923   0.929   3.993  0.5284 -0.3658 -0.1936
 3351SOL     OW 9871   4.962   5.034   0.916  0.3702 -0.1179 -0.5605
 3351SOL    HW1 9872   5.033   5.103   0.933  0.2319 -0.0331 -0.3249
 3351SOL    HW2 9873   4.888   5.046   0.981  1.4132 -1.9889  1.0801
 3352SOL     OW 9874   0.121   0.175   0.686 -0.3037 -0.2736 -0.3817
 3352SOL    HW1 9875   0.148   0.253   0.629 -0.5895  0.4771  0.4722
 3352SOL    HW2 9876   0.035   0.137   0.652 -0.3539  0.0197 -0.5874
 3353SOL     OW 9877   3.609   0.630   3.177 -0.0760  0.1894 -0.1515
 3353SOL    HW1 9878   3.558   0.586   3.251  0.0382 -0.1026 -0.2452
 3353SOL    HW2 9879   3.614   0.568   3.099  0.0399  0.3913 -0.3032
 3354SOL     OW 9880   0.158   4.841   0.569 -0.1749 -0.3679 -0.7470
 3354SOL    HW1 9881   0.253   4.871   0.569  0.7557 -3.0323 -0.2679
 3354SOL    HW2 9882   0.138   4.796   0.656 -1.2441 -1.6429 -1.6243
 3355SOL     OW 9883   4.024   1.044   4.282 -0.3365 -0.4338 -0.3500
 3355SOL    HW1 9884   3.943   0.987   4.267  0.0458 -1.5098  1.3895
 3355SOL    HW2 9885   4.000   1.123   4.339 -0.0880 -1.0119  0.5723
 3356SOL     OW 9886   0.806   2.661   4.937  0.0870  0.1789  0.0152
 3356SOL    HW1 9887   0.751   2.725   4.884  2.3024  0.7189 -1.7601
 3356SOL    HW2 9888   0.844   2.707   5.017 -0.8049  0.1882  0.4496
 3357SOL     OW 9889   0.269   2.790   4.862 -0.0839 -0.0369  0.1143
 3357SOL    HW1 9890   0.332   2.868   4.858 -0.6404  0.4365  0.4706
 3357SOL    HW2 9891   0.200   2.800   4.791 -0.1984 -0.1693  0.2084
 3358SOL     OW 9892   4.747   2.280   0.517 -0.7134 -0.0156 -0.1071
 3358SOL    HW1 9893   4.719   2.262   0.423  0.8184  0.4729 -0.6850
 3358SOL    HW2 9894   4.795   2.367   0.522  1.0197 -0.9599  0.7275
 3359SOL     OW 9895   0.811   0.581   3.826  0.2673  0.2486 -0.1783
 3359SOL    HW1 9896   0.828   0.636   3.908 -0.7445  1.3968 -0.6997
 3359SOL    HW2 9897   0.714   0.588   3.801  0.2628 -1.2475 -0.6568
 3360SOL     OW 9898   4.980   0.468   1.586 -0.2300 -0.5951 -0.0947
 3360SOL    HW1 9899   4.956   0.374   1.609 -2.4319  0.0535  0.4253
 3360SOL    HW2 9900   5.051   0.501   1.650  0.7774 -1.9465 -0.4713
 3361SOL     OW 9901   4.203   1.504   0.296 -0.0623 -0.0302 -0.0486
 3361SOL    HW1 9902   4.148   1.582   0.265 -0.6512 -0.1792  0.5947
 3361SOL    HW2 9903   4.159   1.461   0.374  1.5539  0.5565  1.2412
 3362SOL     OW 9904   2.407   2.477   0.994 -0.5807 -0.5064 -0.0924
 3362SOL    HW1 9905   2.468   2.415   0.943 -0.1229  1.2334 -1.7858
 3362SOL    HW2 9906   2.366   2.427   1.070  1.4469 -2.2853 -0.0425
 3363SOL     OW 9907   0.556   0.296   4.140  0.2582 -0.0843 -0.2665
 3363SOL    HW1 9908   0.652   0.270   4.128  0.3215  0.3462 -0.7200
 3363SOL    HW2 9909   0.505   0.277   4.056 -0.1941 -0.8685  0.1670
 3364SOL     OW 9910   3.580   4.049   0.413  0.3584  0.1331 -0.1933
 3364SOL    HW1 9911   3.493   4.092   0.387 -0.6137 -1.3844  0.4309
 3364SOL    HW2 9912   3.639   4.042   0.332 -0.4546  0.3719 -0.8223
 3365SOL     OW 9913   0.810   1.462   1.514  0.4898  0.2265  0.3763
 3365SOL    HW1 9914   0.854   1.521   1.581 -0.2686  0.3776  0.7441
 3365SOL    HW2 9915   0.809   1.368   1.548 -0.7837  0.4634  1.0350
 3366SOL     OW 9916   4.051   4.328   0.516 -0.4559  0.1157  0.0955
 3366SOL    HW1 9917   3.983   4.261   0.545 -0.2843  0.2856  0.9251
 3366SOL    HW2 9918   4.120   4.338   0.588 -0.8585  1.6923  0.3037
 3367SOL     OW 9919   1.692   0.960   0.828 -0.3579 -0.5196  0.2078
 3367SOL    HW1 9920   1.604   0.983   0.785  0.4299  0.3737 -0.9810
 3367SOL    HW2 9921   1.697   1.003   0.918  0.1274  2.2005 -1.0279
 3368SOL     OW 9922   2.922   2.229   1.739  0.4669  0.3653  0.2985
 3368SOL    HW1 9923   2.919   2.274   1.650  1.8475  1.0598  0.5858
 3368SOL    HW2 9924   3.013   2.239   1.779  0.4074 -1.4937  1.0014
 3369SOL     OW 9925   3.383   1.406   0.781 -0.3557  0.0904 -0.3292
 3369SOL    HW1 9926   3.416   1.328   0.728  0.5091  1.0606 -1.2549
 3369SOL    HW2 9927   3.303   1.446   0.736  0.0081  0.5392 -0.5881
 3370SOL     OW 9928   4.641   1.318   5.034 -0.4424 -0.5303  0.0924
 3370SOL    HW1 9929   4.714   1.351   4.975 -1.3607 -1.6763 -1.7853
 3370SOL    HW2 9930   4.557   1.369   5.016 -1.1559 -1.9826 -0.8319
 3371SOL     OW 9931   4.118   0.034   3.718  0.2032 -0.0932 -0.0291
 3371SOL    HW1 9932   4.088   0.056   3.625  2.8053  1.3248 -0.6386
 3371SOL    HW2 9933   4.178  -0.046   3.715 -0.0234 -0.2850  0.5122
 3372SOL     OW 9934   4.309   4.353   2.511  0.7086 -0.4977 -0.1273
 3372SOL    HW1 9935   4.282   4.443   2.547  1.8444  0.3639 -1.3497
 3372SOL    HW2 9936   4.300   4.354   2.411  0.6928 -1.7778 -0.1460
 3373SOL     OW 9937   3.511   0.729   2.258  0.1101  0.4942  0.1539
 3373SOL    HW1 9938   3.584   0.669   2.290 -0.3934 -0.2400 -0.0772
 3373SOL    HW2 9939   3.552   0.806   2.209  0.7295  0.1106  0.0552
 3374SOL     OW 9940   4.826   1.665   1.404 -0.6003  0.4280 -0.4960
 3374SOL    HW1 9941   4.823   1.666   1.504 -0.5115  2.3435 -0.4761
 3374SOL    HW2 9942   4.921   1.673   1.373 -0.4577 -1.8728 -0.7757
 3375SOL     OW 9943   4.948   4.848   3.459  0.0550  0.6039 -0.6894
 3375SOL    HW1 9944   5.046   4.852   3.440  0.0570  0.9717 -0.6102
 3375SOL    HW2 9945   4.922   4.754   3.479  0.5039  0.5942 -0.1166
 3376SOL     OW 9946   0.586   2.569   3.328 -0.0697 -0.3012 -0.3681
 3376SOL    HW1 9947   0.644   2.565   3.246  0.1487 -2.2538 -0.1587
 3376SOL    HW2 9948   0.491   2.580   3.301 -0.0604 -1.5034 -0.9360
 3377SOL     OW 9949   2.944   2.683   3.075  0.3716 -0.1473 -0.2668
 3377SOL    HW1 9950   2.909   2.777   3.085  0.8028 -0.0536  0.3459
 3377SOL    HW2 9951   3.025   2.684   3.016  0.1042 -0.2033 -0.6445
 3378SOL     OW 9952   0.020   2.408   2.627  0.1912 -0.5447  0.4839
 3378SOL    HW1 9953   0.082   2.346   2.676 -0.6088 -0.4539  1.6489
 3378SOL    HW2 9954   0.071   2.488   2.597  0.3039  0.5510  3.2715
 3379SOL     OW 9955   3.644   0.696   0.099 -0.2358 -0.5334 -0.1742
 3379SOL    HW1 9956   3.555   0.679   0.141 -0.4451 -0.9316 -0.7787
 3379SOL    HW2 9957   3.632   0.738   0.009  0.2318  1.2323  0.5344
 3380SOL     OW 9958   3.779   0.721   2.356  0.1602 -0.0616  0.1503
 3380SOL    HW1 9959   3.712   0.717   2.430 -1.6653  1.7774 -1.2727
 3380SOL    HW2 9960   3.838   0.801   2.370  1.7020 -1.2989  1.0410
 3381SOL     OW 9961   4.386   3.989   1.974  0.0080  0.0916 -0.1303
 3381SOL    HW1 9962   4.451   4.054   1.934 -0.1091  0.8447  0.8955
 3381SOL    HW2 9963   4.410   3.971   2.069 -0.1932 -1.0821 -0.2800
 3382SOL     OW 9964   3.281   1.975   0.898  0.0283 -0.2960 -0.1840
 3382SOL    HW1 9965   3.297   1.913   0.975  0.1844 -1.0503 -0.8097
 3382SOL    HW2 9966   3.362   2.033   0.885  0.2985 -0.6731 -0.2280
 3383SOL     OW 9967   0.829   1.704   2.618 -0.0794  0.8886  0.3414
 3383SOL    HW1 9968   0.890   1.640   2.666  0.0878  0.8369  0.0623
 3383SOL    HW2 9969   0.742   1.659   2.599  0.4682  0.3083 -0.9600
 3384SOL     OW 9970   4.973   2.555   2.280 -0.2775 -0.1471  0.1797
 3384SOL    HW1 9971   4.904   2.549   2.208 -1.7924 -0.7950  1.6260
 3384SOL    HW2 9972   4.989   2.650   2.303  1.0433  0.1443 -1.7228
 3385SOL     OW 9973   4.796   0.404   3.354 -0.2129  0.0918 -0.3083
 3385SOL    HW1 9974   4.777   0.318   3.402 -0.6679 -1.9690 -3.8340
 3385SOL    HW2 9975   4.866   0.455   3.405 -2.3387 -0.5851  3.7153
 3386SOL     OW 9976   3.384   2.705   4.902  0.0424  0.2879  0.1286
 3386SOL    HW1 9977   3.389   2.789   4.848  1.4000  0.0490 -0.1507
 3386SOL    HW2 9978   3.438   2.634   4.858  0.0905 -0.3025  1.1123
 3387SOL     OW 9979   4.375   2.081   1.908 -0.3088 -0.1515  0.0873
 3387SOL    HW1 9980   4.446   2.020   1.874 -0.8664 -0.6737 -0.1557
 3387SOL    HW2 9981   4.402   2.116   1.998 -0.4294 -1.5391  0.6901
 3388SOL     OW 9982   0.108   4.749   1.983  0.4585  0.1228  0.0895
 3388SOL    HW1 9983   0.153   4.744   2.073  0.9824  0.4966 -0.1430
 3388SOL    HW2 9984   0.100   4.657   1.945 -0.0716 -0.0764  0.6628
 3389SOL     OW 9985   4.052   1.255   1.876 -0.3698  0.7185 -0.0184
 3389SOL    HW1 9986   4.011   1.261   1.786 -1.2627 -2.3782  0.0828
 3389SOL    HW2 9987   4.149   1.279   1.870 -0.3001  0.0765 -1.8938
 3390SOL     OW 9988   4.437   3.291   3.761 -0.1709  0.3220 -0.1151
 3390SOL    HW1 9989   4.535   3.299   3.776  0.0836  1.2502 -1.9034
 3390SOL    HW2 9990   4.411   3.195   3.760  0.3732  0.1143  2.1469
 3391SOL     OW 9991   1.352   1.708   2.926  0.1092  0.4704 -0.8584
 3391SOL    HW1 9992   1.451   1.718   2.929  0.0618  0.8056 -0.3136
 3391SOL    HW2 9993   1.322   1.697   2.831  0.9424 -2.5033 -0.8937
 3392SOL     OW 9994   1.256   0.261   2.133  0.1806 -0.1670 -0.1586
 3392SOL    HW1 9995   1.189   0.229   2.200 -0.4613  0.0066 -0.7116
 3392SOL    HW2 9996   1.268   0.359   2.143  0.5682 -0.2415  0.1272
 3393SOL     OW 9997   0.683   0.875   1.788  0.4718  0.1852  0.1560
 3393SOL    HW1 9998   0.775   0.841   1.771  0.3370 -0.6222  0.9122
 3393SOL    HW2 9999   0.632   0.806   1.840  0.2697  1.6423  2.0186
 3394SOL     OW10000   4.156   1.566   1.861 -0.4405 -0.0526 -0.4475
 3394SOL    HW110001   4.223   1.640   1.865  0.4200 -0.6012 -2.7422
 3394SOL    HW210002   4.201   1.480   1.885 -0.6519 -0.2321 -0.6913
 3395SOL     OW10003   4.959   1.267   0.430 -0.6116  0.2400 -0.6889
 3395SOL    HW110004   4.894   1.243   0.358  0.9843  0.9295 -2.4393
 3395SOL    HW210005   4.991   1.361   0.416  0.7161 -0.0598  0.1366
 3396SOL     OW10006   2.064   4.717   3.469  0.1254 -0.4511 -0.0586
 3396SOL    HW110007   2.053   4.806   3.513  0.3210 -0.3792 -0.1560
 3396SOL    HW210008   2.006   4.711   3.388  1.9060  0.5071 -1.4689
 3397SOL     OW10009   3.622   3.727   3.435  0.7439 -0.6688 -0.5257
 3397SOL    HW110010   3.531   3.751   3.469  0.5174 -2.2299  0.0737
 3397SOL    HW210011   3.673   3.810   3.415 -0.5263  0.2488 -0.1034
 3398SOL     OW10012   3.630   1.736   1.926 -0.1112 -0.3749 -0.0218
 3398SOL    HW110013   3.560   1.672   1.958  0.7184 -1.3434 -0.0848
 3398SOL    HW210014   3.712   1.685   1.899  0.9725  0.7974  0.9317
 3399SOL     OW10015   4.030   3.296   4.785 -0.2189 -0.4671 -0.3315
 3399SOL    HW110016   3.981   3.382   4.797  0.4629  0.2482 -2.1648
 3399SOL    HW210017   4.125   3.307   4.817  0.0550 -0.2921 -1.1672
 3400SOL     OW10018   4.442   1.864   3.297  0.0209  0.1742 -0.2062
 3400SOL    HW110019   4.383   1.786   3.273  1.0389 -1.6655  2.7924
 3400SOL    HW210020   4.538   1.836   3.293  0.3964  1.1561  1.2749
 3401SOL     OW10021   4.102   0.178   1.920  0.7598  0.3932  0.3430
 3401SOL    HW110022   4.198   0.207   1.920  0.9214 -0.1188 -0.2664
 3401SOL    HW210023   4.048   0.241   1.976  1.6125  0.1686  1.4620
 3402SOL     OW10024   4.882   2.096   1.062 -0.1409  0.0717  0.5582
 3402SOL    HW110025   4.794   2.051   1.081 -0.6764  0.9776  0.2908
 3402SOL    HW210026   4.932   2.043   0.994  0.4901 -1.6078  2.2189
 3403SOL     OW10027   3.705   4.761   3.789 -0.1689  0.1043  0.1751
 3403SOL    HW110028   3.784   4.822   3.795  0.5603 -0.4807 -2.2735
 3403SOL    HW210029   3.734   4.666   3.803 -0.7394  0.0083  0.7914
 3404SOL     OW10030   3.075   2.817   4.100  0.5106  0.4393 -0.1593
 3404SOL    HW110031   3.074   2.718   4.089 -0.5671  0.5099 -0.8388
 3404SOL    HW210032   3.004   2.858   4.043 -0.8078  1.4023  2.0228
 3405SOL     OW10033   4.905   2.043   0.528 -0.0154 -0.1025  0.5314
 3405SOL    HW110034   4.837   1.979   0.492 -1.8468  1.7986  0.4450
 3405SOL    HW210035   4.863   2.133   0.540  2.8594  1.5219 -0.7782
 3406SOL     OW10036   4.650   4.146   1.420 -0.6278  0.8752  0.0654
 3406SOL    HW110037   4.650   4.242   1.448 -2.1609  0.4432  1.7248
 3406SOL    HW210038   4.564   4.103   1.447 -0.8272 -0.4946 -2.4577
 3407SOL     OW10039   3.259   1.208   3.500 -0.6762  0.4738 -0.6425
 3407SOL    HW110040   3.275   1.138   3.430 -3.1207  1.9416 -2.8757
 3407SOL    HW210041   3.181   1.182   3.556  1.8136 -1.1313  2.3637
 3408SOL     OW10042   0.639   1.827   2.835  0.2494 -0.1031 -0.2264
 3408SOL    HW110043   0.639   1.734   2.872  1.2897 -1.0643 -2.4945
 3408SOL    HW210044   0.716   1.878   2.874  1.1623 -1.0023 -0.8153
 3409SOL     OW10045   4.354   2.695   2.386  0.0109 -0.3156 -0.1053
 3409SOL    HW110046   4.349   2.791   2.359 -1.5784  0.0824  1.3805
 3409SOL    HW210047   4.448   2.663   2.382  0.4099  0.9695 -1.6867
 3410SOL     OW10048   0.214   1.808   3.856  0.3585  0.1131  0.9489
 3410SOL    HW110049   0.174   1.729   3.904  0.2597 -0.2825  0.2336
 3410SOL    HW210050   0.170   1.818   3.767  0.5546  0.8263  0.9281
 3411SOL     OW10051   4.168   1.090   2.999 -0.3504 -0.1518  0.2706
 3411SOL    HW110052   4.138   1.049   3.085  2.7702 -1.3652  0.9323
 3411SOL    HW210053   4.143   1.030   2.923  0.0173 -0.9199  0.7406
 3412SOL     OW10054   0.912   0.859   1.492 -0.6095  0.0427  0.2583
 3412SOL    HW110055   0.935   0.837   1.587 -3.2994  0.7131  1.1366
 3412SOL    HW210056   0.882   0.776   1.445  1.2907 -0.4098 -0.2577
 3413SOL     OW10057   4.900   1.978   3.172  0.4243  0.8201  0.1230
 3413SOL    HW110058   4.812   1.943   3.204 -0.3302  1.3660 -1.3037
 3413SOL    HW210059   4.909   2.074   3.198  0.7977  0.6481  0.6439
 3414SOL     OW10060   4.698   2.778   4.153  0.1032 -0.3387 -0.4471
 3414SOL    HW110061   4.680   2.681   4.172 -1.6938  0.3092  1.6509
 3414SOL    HW210062   4.652   2.805   4.069 -1.1312 -0.8791  0.0316
 3415SOL     OW10063   3.648   4.333   3.060  0.1334  0.0095  0.1304
 3415SOL    HW110064   3.676   4.423   3.026 -0.8367  0.7882  1.3094
 3415SOL    HW210065   3.608   4.281   2.985  0.3424  0.7002 -0.4838
 3416SOL     OW10066   3.088   2.081   3.193 -0.2259  0.2805  0.1294
 3416SOL    HW110067   3.106   2.152   3.260  0.1123  0.1819  0.1446
 3416SOL    HW210068   3.159   2.081   3.123  0.1612 -0.4928  0.5127
 3417SOL     OW10069   4.160   0.125   3.973  0.3950  0.0511 -0.3205
 3417SOL    HW110070   4.135   0.125   3.877 -2.5787  0.2089  0.3570
 3417SOL    HW210071   4.105   0.057   4.022 -0.0973  1.7704  1.6605
 3418SOL     OW10072   3.028   0.600   3.372 -0.0661 -0.1127 -0.5049
 3418SOL    HW110073   2.955   0.612   3.440  0.2283  1.2087 -0.4000
 3418SOL    HW210074   3.047   0.502   3.361 -0.5437 -0.3814  0.8543
 3419SOL     OW10075   3.694   1.272   4.636  0.0430 -0.1993 -0.4921
 3419SOL    HW110076   3.659   1.294   4.727  0.6704 -1.0195 -0.0414
 3419SOL    HW210077   3.657   1.184   4.606 -1.0743  0.6035 -1.5321
 3420SOL     OW10078   3.357   1.050   3.796  0.9570  0.2819 -0.0839
 3420SOL    HW110079   3.422   0.979   3.770  0.3432  0.0199 -0.9319
 3420SOL    HW210080   3.341   1.111   3.718  0.8263  0.8491  0.3768
 3421SOL     OW10081   3.549   2.062   3.786  0.2041 -0.3997  0.5489
 3421SOL    HW110082   3.600   1.995   3.731 -0.1528 -0.4647  0.2985
 3421SOL    HW210083   3.603   2.085   3.868  0.9006 -0.0330  0.0034
 3422SOL     OW10084   3.603   5.005   2.677 -0.6313  0.1064  0.1270
 3422SOL    HW110085   3.681   5.062   2.704 -0.3608 -1.0771  2.0452
 3422SOL    HW210086   3.618   4.968   2.586  0.9716  0.0795  0.3716
 3423SOL     OW10087   0.131   0.088   1.725 -0.0688 -0.1728 -0.2008
 3423SOL    HW110088   0.098   0.111   1.634  1.1308 -1.3992 -0.9903
 3423SOL    HW210089   0.164   0.170   1.771 -1.0291  0.5136 -0.7089
 3424SOL     OW10090   3.275   4.655   3.258 -0.0689  0.3986 -0.3142
 3424SOL    HW110091   3.303   4.648   3.162  0.6144  1.5913 -0.2340
 3424SOL    HW210092   3.241   4.748   3.276 -0.2319  0.1754  0.5878
 3425SOL     OW10093   0.976   1.513   2.753  0.3091 -0.3381  0.4937
 3425SOL    HW110094   0.981   1.476   2.845 -0.6672  0.4226  0.8674
 3425SOL    HW210095   1.042   1.466   2.694  2.6765  0.7669  2.1051
 3426SOL     OW10096   1.094   1.129   2.867 -0.5604  0.2542  0.0042
 3426SOL    HW110097   1.167   1.073   2.827  2.2849  1.0425  3.6121
 3426SOL    HW210098   1.017   1.070   2.893  1.8777 -1.9890  2.6867
 3427SOL     OW10099   3.162   0.325   3.320  0.2378  0.3318  0.0824
 3427SOL    HW110100   3.152   0.280   3.409 -0.5854  2.0996  0.9371
 3427SOL    HW210101   3.087   0.296   3.259  0.2138 -0.0920  0.3060
 3428SOL     OW10102   4.646   1.306   1.278 -0.0092 -0.6257  0.1820
 3428SOL    HW110103   4.570   1.313   1.343 -1.1352 -0.9390 -1.0501
 3428SOL    HW210104   4.610   1.314   1.185  1.6069  0.1607 -0.4009
 3429SOL     OW10105   0.194   4.633   3.255  0.2732  0.7206  0.1303
 3429SOL    HW110106   0.215   4.693   3.332  1.5656  0.9115 -0.3394
 3429SOL    HW210107   0.268   4.566   3.244 -0.7830 -0.4831  0.1737
 3430SOL     OW10108   4.862   0.803   3.086  0.5928  0.2335 -0.4817
 3430SOL    HW110109   4.906   0.795   3.176  1.2998 -2.3660 -0.9518
 3430SOL    HW210110   4.853   0.899   3.062  0.7003  1.0132  2.1974
 3431SOL     OW10111   4.247   0.670   3.064  0.2284  0.5241 -0.0912
 3431SOL    HW110112   4.333   0.619   3.057 -0.3884 -0.4600 -0.6040
 3431SOL    HW210113   4.198   0.665   2.977 -1.3080 -0.6291  0.7939
 3432SOL     OW10114   2.717   3.855   3.181  0.0770  0.0528 -0.1153
 3432SOL    HW110115   2.724   3.911   3.099  2.0651  0.1716  0.1028
 3432SOL    HW210116   2.750   3.907   3.260 -1.3520 -0.2243  0.7046
 3433SOL     OW10117   1.079   4.983   3.604  0.3873 -0.2635 -0.1191
 3433SOL    HW110118   1.022   5.065   3.605  0.0144 -0.5003  1.3262
 3433SOL    HW210119   1.170   5.006   3.639 -0.7496 -1.0540  3.8419
 3434SOL     OW10120   4.914   3.455   4.082  0.6439 -0.4783  0.3260
 3434SOL    HW110121   4.974   3.397   4.027 -0.4090 -0.1028 -1.2902
 3434SOL    HW210122   4.934   3.551   4.063  0.7212 -0.3335  1.1210
 3435SOL     OW10123   3.887   1.889   3.247  0.2039 -0.1428 -0.8064
 3435SOL    HW110124   3.916   1.924   3.336  0.5308 -2.2107 -0.0260
 3435SOL    HW210125   3.946   1.925   3.176  1.9762 -0.8979  0.2300
 3436SOL     OW10126   3.912   1.751   2.502 -0.4200  0.3253  0.0501
 3436SOL    HW110127   3.962   1.835   2.482 -0.0283 -0.3511 -2.1344
 3436SOL    HW210128   3.864   1.760   2.589  0.1179  2.5494  0.1696
 3437SOL     OW10129   1.940   4.636   1.400 -0.6156  0.1750 -0.4536
 3437SOL    HW110130   2.020   4.622   1.341 -0.8146 -0.0287 -0.6731
 3437SOL    HW210131   1.958   4.714   1.462  0.4199 -0.8849  0.6412
 3438SOL     OW10132   4.273   1.663   3.204 -0.5340  0.0905  0.5632
 3438SOL    HW110133   4.348   1.656   3.138 -1.6713  0.9103 -0.8768
 3438SOL    HW210134   4.247   1.571   3.234  0.9423 -0.2165  1.0107
 3439SOL     OW10135   0.606   2.892   2.111  0.2190  0.4374 -0.4756
 3439SOL    HW110136   0.551   2.947   2.048 -0.5748 -0.7544 -0.8497
 3439SOL    HW210137   0.702   2.899   2.086 -0.1505 -0.7441 -2.4538
 3440SOL     OW10138   2.340   3.814   0.472  0.0133 -0.8185 -0.3359
 3440SOL    HW110139   2.277   3.855   0.537  0.0642  1.4791 -1.6256
 3440SOL    HW210140   2.289   3.761   0.404 -0.0394 -3.1929  1.4208
 3441SOL     OW10141   1.630   1.644   3.639  0.5207 -0.6552 -0.0945
 3441SOL    HW110142   1.662   1.554   3.608  0.1573 -1.2178  1.1163
 3441SOL    HW210143   1.555   1.674   3.579  1.7538 -0.3688 -1.5405
 3442SOL     OW10144   4.099   1.573   3.860  0.3450 -0.3559  0.2017
 3442SOL    HW110145   4.124   1.554   3.765  0.7791  0.0935  0.2231
 3442SOL    HW210146   4.138   1.661   3.888 -1.1180  0.2869  0.2922
 3443SOL     OW10147   4.904   3.962   2.784 -0.4083 -0.1902  0.2289
 3443SOL    HW110148   4.867   3.908   2.860 -0.5699 -0.4312 -0.0180
 3443SOL    HW210149   4.978   3.911   2.740 -2.0853 -1.2792 -1.4791
 3444SOL     OW10150   3.592   4.815   3.376  0.1144 -0.1834  0.0664
 3444SOL    HW110151   3.557   4.742   3.435 -1.3312  0.4283  0.0089
 3444SOL    HW210152   3.625   4.776   3.290  1.6644 -1.0166  0.9989
 3445SOL     OW10153   2.021   2.495   4.034 -0.2140  0.1437 -0.3996
 3445SOL    HW110154   1.937   2.457   4.072  0.2956  1.5300  2.4024
 3445SOL    HW210155   2.097   2.434   4.053 -0.1843  0.1561 -0.4800
 3446SOL     OW10156   4.506   4.487   3.538  0.0220  0.0761 -0.8900
 3446SOL    HW110157   4.558   4.451   3.460 -1.0160  1.9733 -2.5793
 3446SOL    HW210158   4.426   4.429   3.555  0.8557 -0.9806 -0.4576
 3447SOL     OW10159   4.742   0.165   2.671 -0.0820 -0.2827  0.0668
 3447SOL    HW110160   4.795   0.228   2.615 -0.0314  0.5201  0.9883
 3447SOL    HW210161   4.670   0.215   2.720 -1.1370 -1.2178 -0.4784
 3448SOL     OW10162   0.429   1.692   2.520  0.3983  0.1544  0.4296
 3448SOL    HW110163   0.510   1.634   2.512  0.7964  0.7910 -0.3791
 3448SOL    HW210164   0.439   1.753   2.599  0.3350 -0.3288  0.8132
 3449SOL     OW10165   4.182   1.178   3.893  0.1489 -0.0166 -0.5753
 3449SOL    HW110166   4.279   1.194   3.873 -0.1174  0.0907 -1.9130
 3449SOL    HW210167   4.129   1.188   3.809 -0.8505 -1.4700 -0.1653
 3450SOL     OW10168   2.990   1.086   3.928  0.0618  0.2843  0.8658
 3450SOL    HW110169   3.009   1.094   3.830 -3.3175 -2.5385 -0.2018
 3450SOL    HW210170   3.066   1.126   3.980  1.4719  2.9346 -2.8123
 3451SOL     OW10171   2.961   4.643   4.801  0.2989  0.3286 -0.0429
 3451SOL    HW110172   2.912   4.596   4.727  0.9330 -1.0845  0.3915
 3451SOL    HW210173   2.898   4.705   4.848 -0.8209 -0.6925 -0.1303
 3452SOL     OW10174   0.114   0.741   2.244 -0.6785 -0.0696 -0.0175
 3452SOL    HW110175   0.082   0.647   2.234  2.2468 -1.3743  1.6680
 3452SOL    HW210176   0.084   0.777   2.332 -0.7762  0.1278 -0.1319
 3453SOL     OW10177   3.795   0.453   3.030 -0.5223  0.4915  0.3933
 3453SOL    HW110178   3.825   0.484   2.940 -0.4220  2.2133  0.9933
 3453SOL    HW210179   3.862   0.481   3.098 -0.8367 -0.3814  1.0773
 3454SOL     OW10180   1.037   1.855   2.018  0.2711 -0.2934  0.2917
 3454SOL    HW110181   1.065   1.759   2.022 -0.8816 -0.6331  0.4926
 3454SOL    HW210182   1.021   1.888   2.111 -0.7133 -0.3373  0.1463
 3455SOL     OW10183   0.516   0.284   1.934 -0.1625  0.2350  0.7145
 3455SOL    HW110184   0.416   0.287   1.933 -0.1893  0.2674  1.8026
 3455SOL    HW210185   0.553   0.353   1.872 -0.8106  0.7557  0.9086
 3456SOL     OW10186   2.875   3.211   2.947  0.4836  0.4714  0.0798
 3456SOL    HW110187   2.823   3.284   2.992 -1.2930 -0.7394  0.0831
 3456SOL    HW210188   2.966   3.205   2.988 -0.2869  0.9017  1.9797
 3457SOL     OW10189   3.817   0.959   3.867  0.3418 -0.3717  0.3223
 3457SOL    HW110190   3.775   0.870   3.885 -0.2005 -0.0520  0.6398
 3457SOL    HW210191   3.762   1.008   3.800 -0.0390  0.2243  1.0584
 3458SOL     OW10192   3.087   1.647   3.683  0.5341 -0.0616 -1.0594
 3458SOL    HW110193   3.023   1.581   3.645 -0.6577  1.5920 -2.0395
 3458SOL    HW210194   3.051   1.683   3.769  0.3321  0.5610 -1.3979
 3459SOL     OW10195   0.165   2.271   2.822 -0.3699  0.0029 -0.5008
 3459SOL    HW110196   0.153   2.269   2.922 -0.1967  0.3815 -0.4726
 3459SOL    HW210197   0.170   2.177   2.788 -1.8902 -0.1693 -0.3272
 3460SOL     OW10198   4.165   0.329   2.639 -0.0974  0.3555 -0.5776
 3460SOL    HW110199   4.207   0.386   2.568  0.8876  0.6411  0.2047
 3460SOL    HW210200   4.218   0.245   2.651 -0.2164  0.3388 -0.1354
 3461SOL     OW10201   3.917   4.251   3.183  0.2405 -0.2309 -0.4442
 3461SOL    HW110202   3.834   4.252   3.127  1.0287  0.6615 -1.6320
 3461SOL    HW210203   3.995   4.275   3.127  1.2509 -0.5735  0.7782
 3462SOL     OW10204   0.363   2.840   4.244  0.1595  0.1956  0.4411
 3462SOL    HW110205   0.340   2.881   4.332  2.9847  1.6384  0.6270
 3462SOL    HW210206   0.309   2.883   4.172  1.9693  3.4479  0.8069
 3463SOL     OW10207   3.421   0.484   3.335  0.1104  0.0932  0.5827
 3463SOL    HW110208   3.334   0.436   3.323  0.4151 -0.4818  0.6417
 3463SOL    HW210209   3.491   0.419   3.362  0.3621  0.7082  1.4221
 3464SOL     OW10210   0.034   1.777   1.747  0.2023 -0.0348 -0.0205
 3464SOL    HW110211  -0.006   1.778   1.838 -2.0455 -1.5937 -0.8974
 3464SOL    HW210212   0.133   1.787   1.753  0.0322  0.7087  2.4983
 3465SOL     OW10213   0.180   3.752   1.925 -0.3006 -0.3642  0.2869
 3465SOL    HW110214   0.150   3.761   1.830 -1.3177  0.2153  0.6481
 3465SOL    HW210215   0.134   3.821   1.982  0.2298 -0.7487  1.2106
 3466SOL     OW10216   0.085   2.096   1.954 -0.8256 -0.4467  0.0862
 3466SOL    HW110217   0.003   2.046   1.927 -1.2687  0.5013 -0.3682
 3466SOL    HW210218   0.106   2.165   1.885  0.6141 -0.9590 -0.0235
 3467SOL     OW10219   3.137   0.824   3.645 -0.0035 -0.4319  0.2477
 3467SOL    HW110220   3.052   0.822   3.592  0.5334 -0.3872 -0.6394
 3467SOL    HW210221   3.211   0.782   3.592  0.5288 -0.5048  1.0175
 3468SOL     OW10222   3.071   4.345   2.755 -0.0640  0.1696  0.0919
 3468SOL    HW110223   2.976   4.374   2.758 -0.5985 -1.5020  0.4369
 3468SOL    HW210224   3.091   4.305   2.665  0.1396 -0.0413  0.2293
 3469SOL     OW10225   0.700   3.892   2.408 -0.1372  0.6363 -0.4738
 3469SOL    HW110226   0.718   3.875   2.311 -1.0935 -2.2641 -0.2189
 3469SOL    HW210227   0.775   3.945   2.447  1.8127 -0.7624 -2.1020
 3470SOL     OW10228   3.286   0.729   3.411  0.0395 -0.6972  0.7652
 3470SOL    HW110229   3.203   0.673   3.405 -0.5946  0.1381  1.4401
 3470SOL    HW210230   3.364   0.676   3.379 -0.7040 -1.6065  0.3946
 3471SOL     OW10231   3.526   0.851   2.757 -0.1192 -0.1938 -0.2484
 3471SOL    HW110232   3.540   0.842   2.856  2.9003  0.0153 -0.5500
 3471SOL    HW210233   3.467   0.929   2.738 -1.3768 -0.6936  1.3759
 3472SOL     OW10234   4.765   0.689   2.257 -0.1735  0.6107  0.2961
 3472SOL    HW110235   4.710   0.667   2.177  0.7611  2.1837 -0.8399
 3472SOL    HW210236   4.739   0.779   2.292 -0.7994 -0.1893  2.0192
 3473SOL     OW10237   4.717   1.012   2.080  0.4354 -0.0550  0.2770
 3473SOL    HW110238   4.669   0.932   2.044 -1.1316  0.0641  1.9772
 3473SOL    HW210239   4.701   1.090   2.020 -1.6541  0.0075  0.8554
 3474SOL     OW10240   2.222   0.617   3.156  0.1976  0.1216  0.3857
 3474SOL    HW110241   2.173   0.567   3.227  1.6342  0.2775  1.5314
 3474SOL    HW210242   2.158   0.676   3.107 -1.0072 -0.7605  0.8400
 3475SOL     OW10243   5.004   0.805   4.651 -0.0171  0.2973  0.1672
 3475SOL    HW110244   5.097   0.828   4.681 -0.1796  0.8481  0.2581
 3475SOL    HW210245   4.979   0.716   4.688  0.6310 -0.0552 -0.2088
 3476SOL     OW10246   3.911   4.907   1.108  0.1923  0.4065 -0.6877
 3476SOL    HW110247   4.006   4.913   1.078 -0.1823  0.6451 -1.8916
 3476SOL    HW210248   3.851   4.904   1.028 -0.6630 -3.6943 -0.1201
 3477SOL     OW10249   2.760   4.190   3.247  0.0812  0.5309 -0.5919
 3477SOL    HW110250   2.732   4.137   3.167  1.5091 -0.9109 -0.2026
 3477SOL    HW210251   2.848   4.156   3.280 -0.6573  0.7612  1.8453
 3478SOL     OW10252   4.084   3.993   2.643 -0.2137 -0.1341 -0.4620
 3478SOL    HW110253   4.017   4.066   2.653  1.0322  0.8764  0.9707
 3478SOL    HW210254   4.176   4.033   2.637  0.3688 -1.5292 -1.2297
 3479SOL     OW10255   0.088   1.440   3.616 -0.3184  0.3326 -0.4986
 3479SOL    HW110256   0.064   1.451   3.519  2.2285 -1.3504 -1.4603
 3479SOL    HW210257   0.033   1.367   3.656 -2.1315  1.7478 -0.3251
 3480SOL     OW10258   0.217   0.192   2.394 -0.7935  0.2079  0.1537
 3480SOL    HW110259   0.204   0.292   2.390  1.0313  0.4763  0.2316
 3480SOL    HW210260   0.153   0.153   2.460 -1.0763  1.4115  0.6176
 3481SOL     OW10261   4.161   0.971   2.360 -0.3828 -0.2299  0.1932
 3481SOL    HW110262   4.245   0.929   2.393 -0.0664  0.3966  0.1925
 3481SOL    HW210263   4.181   1.060   2.320 -0.8102 -0.7950 -1.3489
 3482SOL     OW10264   0.110   2.036   4.607 -0.5339  0.0085  0.5677
 3482SOL    HW110265   0.146   2.055   4.698 -3.0234  1.9311  1.2785
 3482SOL    HW210266   0.063   1.948   4.606  0.3865 -0.4949  0.8219
 3483SOL     OW10267   4.495   0.518   3.140  0.2569 -0.1628 -0.1950
 3483SOL    HW110268   4.592   0.529   3.121 -0.1850  0.3573 -2.4378
 3483SOL    HW210269   4.456   0.449   3.079 -0.8309 -0.2495  0.5577
 3484SOL     OW10270   0.370   1.238   2.586 -0.2968 -0.0806 -0.4524
 3484SOL    HW110271   0.381   1.313   2.652 -0.7025  1.1299 -1.7239
 3484SOL    HW210272   0.439   1.168   2.604  0.9793  1.2287 -0.0681
 3485SOL     OW10273   0.820   1.221   1.640  0.3577  0.0784  0.0575
 3485SOL    HW110274   0.855   1.263   1.724  0.8503  1.5008 -0.8350
 3485SOL    HW210275   0.737   1.169   1.662  0.4871  0.4006  1.4309
 3486SOL     OW10276   1.121   2.012   2.869  0.5079  0.0342 -0.1173
 3486SOL    HW110277   1.036   2.024   2.817 -0.8334 -5.8690  0.0110
 3486SOL    HW210278   1.112   2.055   2.958 -1.6085  1.0440 -0.7540
 3487SOL     OW10279   2.732   0.959   3.814 -0.0193 -0.5937  0.1896
 3487SOL    HW110280   2.828   0.972   3.839 -0.3244 -0.4898  1.3249
 3487SOL    HW210281   2.686   1.047   3.809 -0.3358 -0.7195  0.8030
 3488SOL     OW10282   0.956   1.347   1.846 -0.0174  0.0147 -0.4526
 3488SOL    HW110283   1.047   1.336   1.887 -0.1521  0.2351 -0.0866
 3488SOL    HW210284   0.951   1.437   1.802 -0.4301  0.4849  0.5180
 3489SOL     OW10285   4.458   2.563   3.884 -0.2887 -0.6572 -0.7597
 3489SOL    HW110286   4.421   2.596   3.971 -0.9410 -1.5634 -0.6811
 3489SOL    HW210287   4.411   2.479   3.857  0.1822 -0.6079 -1.7922
 3490SOL     OW10288   4.950   3.556   1.629 -0.3379 -0.2026 -0.5620
 3490SOL    HW110289   4.957   3.469   1.676  0.3985 -0.4920 -1.1800
 3490SOL    HW210290   4.956   3.541   1.530  0.8930  0.6230 -0.6487
 3491SOL     OW10291   4.281   0.871   2.623 -0.0576  0.3287 -0.0471
 3491SOL    HW110292   4.362   0.865   2.565  0.5740  0.0114  0.8598
 3491SOL    HW210293   4.290   0.809   2.701 -0.7357  1.0191  0.5970
 3492SOL     OW10294   4.617   1.949   1.522 -0.2279 -0.0680 -0.6809
 3492SOL    HW110295   4.708   1.961   1.483  0.2455 -0.6824  0.1961
 3492SOL    HW210296   4.569   1.874   1.474  1.0577 -2.1071  1.0321
 3493SOL     OW10297   4.271   1.901   0.196 -0.3691  0.2333 -0.4958
 3493SOL    HW110298   4.274   1.998   0.172 -2.3940  0.9294  1.6777
 3493SOL    HW210299   4.363   1.863   0.195  0.5363  2.3331 -0.8024
 3494SOL     OW10300   3.683   2.763   3.159  0.6582  0.0008  0.7230
 3494SOL    HW110301   3.608   2.704   3.188 -0.2893  0.8053  0.0006
 3494SOL    HW210302   3.651   2.824   3.086  1.9449  0.5504  0.5890
 3495SOL     OW10303   4.599   1.621   2.420  0.2553 -0.5453 -0.3306
 3495SOL    HW110304   4.534   1.695   2.438  0.2730 -0.5515 -0.2373
 3495SOL    HW210305   4.550   1.534   2.421 -0.0225 -0.4269 -1.8596
 3496SOL     OW10306   4.899   0.962   3.551  0.5309  0.3174  0.1190
 3496SOL    HW110307   4.850   1.023   3.489  0.1355  0.7049  0.7950
 3496SOL    HW210308   4.834   0.910   3.605  0.8249  1.2289  1.4093
 3497SOL     OW10309   3.957   4.692   3.546 -0.1497 -0.0123 -0.4810
 3497SOL    HW110310   4.042   4.644   3.566 -0.1622  0.1618 -0.0084
 3497SOL    HW210311   3.929   4.747   3.625 -1.4943 -1.2388 -0.0698
 3498SOL     OW10312   0.502   1.798   3.299 -0.2115  0.2167  0.1199
 3498SOL    HW110313   0.483   1.892   3.271 -0.7552 -0.0074 -0.2656
 3498SOL    HW210314   0.464   1.782   3.390 -2.1321 -0.2939 -0.7274
 3499SOL     OW10315   0.490   2.256   2.864  0.4108  0.1666 -0.2250
 3499SOL    HW110316   0.558   2.246   2.791 -0.5734 -0.1232 -1.1273
 3499SOL    HW210317   0.399   2.244   2.826 -0.0596 -1.6244  1.3531
 3500SOL     OW10318   1.930   1.828   4.098 -0.5963  0.2768  0.7035
 3500SOL    HW110319   1.891   1.742   4.068  0.0404 -0.3107  1.5057
 3500SOL    HW210320   1.979   1.814   4.184 -0.0218  1.3201  0.5637
 3501SOL     OW10321   4.523   0.001   3.603  0.4588 -0.7495  0.6657
 3501SOL    HW110322   4.458   0.073   3.578  1.4312  0.3704  1.2705
 3501SOL    HW210323   4.543  -0.055   3.522 -1.0005 -0.9392  0.4042
 3502SOL     OW10324   2.952   4.921   3.549 -0.2094 -0.9302 -0.1837
 3502SOL    HW110325   2.939   4.882   3.641 -1.7631  0.1746  0.1016
 3502SOL    HW210326   2.904   4.865   3.482 -2.5250  0.4123  0.2390
 3503SOL     OW10327   1.419   0.003   2.702  0.1756 -0.2737  0.2615
 3503SOL    HW110328   1.403   0.079   2.765 -1.2556  0.2649 -0.6991
 3503SOL    HW210329   1.390   0.029   2.611 -1.8786 -2.5089  0.1939
 3504SOL     OW10330   3.731   3.892   2.492 -0.0280  0.5554 -0.0319
 3504SOL    HW110331   3.654   3.933   2.444  0.1629  1.3339  0.3103
 3504SOL    HW210332   3.810   3.887   2.430 -0.7650 -1.6928 -0.8838
 3505SOL     OW10333   5.037   0.759   2.872 -0.1705  0.2282 -0.3607
 3505SOL    HW110334   5.129   0.725   2.892  0.6691  2.1391 -0.7328
 3505SOL    HW210335   4.993   0.789   2.957  0.5836  1.6887 -0.4600
 3506SOL     OW10336   3.856   1.722   4.103  0.9969 -0.0859 -0.0028
 3506SOL    HW110337   3.841   1.634   4.059 -2.8170 -0.1009  0.9989
 3506SOL    HW210338   3.851   1.795   4.034 -0.7901 -0.3942 -0.2589
 3507SOL     OW10339   3.939   1.266   2.729 -0.2162 -0.6498  0.1746
 3507SOL    HW110340   3.844   1.235   2.723 -0.0100 -1.1530 -0.7642
 3507SOL    HW210341   4.000   1.187   2.734  0.1130 -0.3183  1.7953
 3508SOL     OW10342   1.355   2.203   2.039 -0.0105  0.7146 -0.4941
 3508SOL    HW110343   1.355   2.127   2.105  0.7385 -0.8829 -2.2442
 3508SOL    HW210344   1.394   2.284   2.083 -1.5220  0.3715  1.6662
 3509SOL     OW10345   1.130   1.170   3.172 -0.3082  0.4075  0.3401
 3509SOL    HW110346   1.091   1.185   3.082  1.2458  0.1457 -0.4181
 3509SOL    HW210347   1.089   1.088   3.213  0.0638 -0.3785 -0.8065
 3510SOL     OW10348   3.498   1.491   1.420  0.3888 -0.0473  0.5391
 3510SOL    HW110349   3.493   1.542   1.334  0.4744 -1.2807 -0.2248
 3510SOL    HW210350   3.478   1.394   1.402 -1.0946 -0.0718  2.1631
 3511SOL     OW10351   3.218   2.427   3.574  0.5124 -0.3821  0.5240
 3511SOL    HW110352   3.131   2.377   3.564  0.8372 -1.1818  1.5395
 3511SOL    HW210353   3.292   2.361   3.587  0.9204  0.3527  2.1788
 3512SOL     OW10354   3.543   2.066   3.107  0.5147 -0.4054 -0.1732
 3512SOL    HW110355   3.607   2.137   3.078  0.0953  0.6936  1.4821
 3512SOL    HW210356   3.580   1.976   3.082  2.8856  0.1604  0.9974
 3513SOL     OW10357   3.661   1.717   4.606 -0.1374 -0.4333 -0.2759
 3513SOL    HW110358   3.594   1.707   4.533  0.6966  2.0232 -1.5008
 3513SOL    HW210359   3.752   1.727   4.566  0.8234 -2.3859  1.2987
 3514SOL     OW10360   2.763   1.610   3.957 -0.1433 -0.7181  0.0976
 3514SOL    HW110361   2.711   1.670   4.018 -0.2625 -0.6963 -0.0273
 3514SOL    HW210362   2.859   1.639   3.955  0.5080 -2.3284  2.4390
 3515SOL     OW10363   3.951   2.929   2.940 -0.3247  0.5561 -0.3172
 3515SOL    HW110364   3.991   3.020   2.926  1.0496  0.0026 -0.2107
 3515SOL    HW210365   3.906   2.925   3.029  1.3788  0.5591  0.5881
 3516SOL     OW10366   3.350   1.490   4.048  0.0477 -0.0075  0.1886
 3516SOL    HW110367   3.439   1.500   4.093  0.2016  0.5383 -0.2203
 3516SOL    HW210368   3.362   1.441   3.961 -0.3498 -1.6919  1.0420
 3517SOL     OW10369   4.710   1.390   1.708 -0.6660  0.4700  0.0312
 3517SOL    HW110370   4.758   1.477   1.723  0.9962 -0.3194 -0.4902
 3517SOL    HW210371   4.755   1.339   1.635  0.0059 -1.9769  2.0135
 3518SOL     OW10372   4.208   0.618   3.487  0.1586 -0.2644  0.1359
 3518SOL    HW110373   4.127   0.577   3.446  0.5521 -0.8970 -0.0262
 3518SOL    HW210374   4.286   0.556   3.477  0.9050  0.7662 -0.6018
 3519SOL     OW10375   3.455   1.656   3.129  0.1352  0.0223  0.0747
 3519SOL    HW110376   3.533   1.718   3.118  0.1833  0.2699  1.6817
 3519SOL    HW210377   3.424   1.626   3.038  1.9862  0.0362 -0.6112
 3520SOL     OW10378   0.567   0.637   3.486 -0.2432  0.1992  0.1951
 3520SOL    HW110379   0.513   0.597   3.412  1.0657 -0.5824 -0.3854
 3520SOL    HW210380   0.636   0.698   3.447 -1.2850  1.9822  0.9823
 3521SOL     OW10381   4.171   4.373   4.968  0.4948  0.2510 -0.1794
 3521SOL    HW110382   4.172   4.375   5.068  2.2796  0.3620 -0.1628
 3521SOL    HW210383   4.121   4.452   4.933 -3.0880 -1.4471  0.5619
 3522SOL     OW10384   2.313   1.724   4.925  0.4361 -0.2354 -0.0007
 3522SOL    HW110385   2.274   1.806   4.885  2.9610 -0.1533 -2.6899
 3522SOL    HW210386   2.271   1.643   4.883 -0.7761 -0.3278  1.3256
 3523SOL     OW10387   0.871   1.520   3.663  0.0423 -0.5872 -0.3116
 3523SOL    HW110388   0.778   1.554   3.650  0.3167  0.4065  0.2006
 3523SOL    HW210389   0.930   1.595   3.693  1.0868 -1.1287 -0.9487
 3524SOL     OW10390   4.544   1.832   0.171  0.1854  0.2740 -0.0790
 3524SOL    HW110391   4.523   1.814   0.075  2.3856  1.8498 -0.9311
 3524SOL    HW210392   4.531   1.748   0.224 -0.7349 -0.7239 -1.8025
 3525SOL     OW10393   2.277   0.379   4.869  0.3515  0.1572 -0.3826
 3525SOL    HW110394   2.214   0.426   4.807 -0.4834 -0.2132  0.1668
 3525SOL    HW210395   2.305   0.291   4.828 -1.1084 -0.6245  0.2471
 3526SOL     OW10396   2.749   1.334   2.249  0.1429  0.7226  0.7920
 3526SOL    HW110397   2.823   1.370   2.306  1.9149 -0.4506 -0.6495
 3526SOL    HW210398   2.727   1.240   2.278  2.0482 -0.4319 -1.2028
 3527SOL     OW10399   2.119   4.253   4.082 -0.0552 -0.6312 -0.0972
 3527SOL    HW110400   2.047   4.190   4.112 -0.3862 -0.7582 -1.1190
 3527SOL    HW210401   2.204   4.202   4.071  0.5062 -0.2874  2.1460
 3528SOL     OW10402   3.841   1.919   0.167  0.3143  0.1706  0.2315
 3528SOL    HW110403   3.755   1.942   0.213  0.6232  0.4615  0.6747
 3528SOL    HW210404   3.881   2.001   0.127 -0.5863 -0.2814 -1.6922
 3529SOL     OW10405   0.381   0.999   4.182 -0.1411  0.3849 -0.4253
 3529SOL    HW110406   0.465   1.048   4.158  1.2143 -2.1895 -1.4385
 3529SOL    HW210407   0.304   1.062   4.183  1.9200  3.1845  1.9258
 3530SOL     OW10408   3.317   4.770   0.031  0.1917  0.1660 -0.2305
 3530SOL    HW110409   3.387   4.745  -0.036 -0.1869 -2.0602  0.1014
 3530SOL    HW210410   3.241   4.705   0.025 -0.1177  0.2457  1.9217
 3531SOL     OW10411   0.484   1.613   0.901 -0.5713  0.1348 -0.3747
 3531SOL    HW110412   0.563   1.579   0.953 -1.7595 -1.4804  0.4524
 3531SOL    HW210413   0.503   1.606   0.803  0.5374  0.3367 -0.1834
 3532SOL     OW10414   4.528   0.999   0.692 -0.0775  0.3096 -0.3262
 3532SOL    HW110415   4.538   1.092   0.658  0.8501  0.0848 -0.6901
 3532SOL    HW210416   4.617   0.953   0.692 -0.2548 -0.1074  1.2235
 3533SOL     OW10417   4.576   2.019   0.371 -0.4453 -0.3544  0.0908
 3533SOL    HW110418   4.598   1.955   0.445  0.9106 -0.1416 -0.0983
 3533SOL    HW210419   4.568   1.970   0.285  1.5149 -0.2223 -0.2226
 3534SOL     OW10420   3.252   2.478   0.367  0.4765  0.0453 -0.2497
 3534SOL    HW110421   3.331   2.533   0.393  0.2877  1.3691 -2.2703
 3534SOL    HW210422   3.258   2.456   0.270 -1.6339  0.1533 -0.4348
 3535SOL     OW10423   4.299   1.510   2.507 -0.0556  0.2425 -0.3832
 3535SOL    HW110424   4.368   1.445   2.475  2.0547  2.3484 -0.3455
 3535SOL    HW210425   4.235   1.530   2.432  0.2596 -0.5961 -0.8942
 3536SOL     OW10426   0.296   2.354   0.064  0.2108 -0.1621  0.6451
 3536SOL    HW110427   0.350   2.270   0.054  0.3295  0.0062 -0.2657
 3536SOL    HW210428   0.316   2.415  -0.013 -1.8060 -0.3998 -0.1297
 3537SOL     OW10429   4.516   1.494   4.203  0.3468 -0.6390 -0.3216
 3537SOL    HW110430   4.579   1.427   4.242 -0.0009 -0.0819  1.3074
 3537SOL    HW210431   4.423   1.472   4.231  0.2647  0.6853  0.5733
 3538SOL     OW10432   4.022   0.535   3.145 -0.3622  0.2074  0.3070
 3538SOL    HW110433   4.087   0.590   3.092 -0.4179  0.2626  0.2964
 3538SOL    HW210434   3.966   0.594   3.202  0.8467  0.0403  1.7425
 3539SOL     OW10435   3.627   2.419   4.208 -0.1365 -0.5444 -0.5448
 3539SOL    HW110436   3.719   2.456   4.201  0.0050 -1.0894 -1.8560
 3539SOL    HW210437   3.625   2.345   4.274  0.2299 -0.1600 -0.0966
 3540SOL     OW10438   0.416   0.999   3.625 -0.2799 -0.4416  0.6803
 3540SOL    HW110439   0.325   0.979   3.589 -0.3219 -0.2471  0.6783
 3540SOL    HW210440   0.433   0.943   3.706 -1.6066  1.6770  2.5470
 3541SOL     OW10441   0.746   2.126   3.366 -0.4286 -0.0831 -0.6308
 3541SOL    HW110442   0.767   2.029   3.377 -0.3108 -0.0581 -0.6443
 3541SOL    HW210443   0.647   2.137   3.354 -0.6512 -0.0810  0.9305
 3542SOL     OW10444   4.757   1.266   4.487  0.2897  0.1761  0.6293
 3542SOL    HW110445   4.713   1.252   4.398  0.0232  2.4669  0.3481
 3542SOL    HW210446   4.781   1.177   4.526 -0.3955 -0.9275 -1.3079
 3543SOL     OW10447   4.997   0.212   0.373 -0.0682  0.1611 -0.1017
 3543SOL    HW110448   5.075   0.254   0.418 -0.2802 -0.3154  0.7229
 3543SOL    HW210449   5.006   0.112   0.377 -2.1782 -0.0306  2.7300
 3544SOL     OW10450   0.081   1.153   0.814  0.1499  0.1667  0.4972
 3544SOL    HW110451   0.156   1.120   0.756 -0.1718 -1.8561  1.1269
 3544SOL    HW210452   0.099   1.127   0.909 -1.2479 -0.1907  0.6821
 3545SOL     OW10453   3.807   0.317   0.659 -0.5622  0.3145 -0.1650
 3545SOL    HW110454   3.769   0.269   0.739  0.1214  0.5549  0.3129
 3545SOL    HW210455   3.903   0.338   0.676 -0.6181  1.0539 -0.7453
 3546SOL     OW10456   4.796   0.547   3.929 -0.5417  0.4554 -0.1565
 3546SOL    HW110457   4.865   0.491   3.884 -0.9463  0.6549 -1.0523
 3546SOL    HW210458   4.708   0.499   3.927 -0.8421  1.0177 -0.7343
 3547SOL     OW10459   4.733   1.661   3.911  0.3273  0.1615  0.6188
 3547SOL    HW110460   4.792   1.682   3.989  1.0337  0.5104 -0.0073
 3547SOL    HW210461   4.637   1.664   3.941  0.5712  0.6149  1.3924
 3548SOL     OW10462   2.866   0.876   3.587  0.1764  0.1039  0.1735
 3548SOL    HW110463   2.804   0.879   3.665 -0.9638  0.8925 -0.7225
 3548SOL    HW210464   2.847   0.794   3.533  0.2538  0.0902  0.1673
 3549SOL     OW10465   4.022   1.042   3.225 -0.5457  0.0636 -0.1770
 3549SOL    HW110466   4.082   1.092   3.288  0.0611  1.7283 -1.9749
 3549SOL    HW210467   3.961   0.982   3.278  0.0264  1.2456  1.9664
 3550SOL     OW10468   0.950   2.136   4.749 -0.4536  0.5776  0.0879
 3550SOL    HW110469   0.855   2.149   4.778 -0.3275  0.6299  0.4911
 3550SOL    HW210470   0.976   2.210   4.688 -1.2157 -0.3785 -1.4537
 3551SOL     OW10471   3.686   0.027   3.131  0.1836  0.1976 -0.5999
 3551SOL    HW110472   3.652  -0.041   3.066  0.5106 -0.5175 -0.0443
 3551SOL    HW210473   3.622   0.035   3.208  0.6691 -0.2908 -0.1322
 3552SOL     OW10474   5.005   1.244   3.265  0.2303 -0.3927  0.2847
 3552SOL    HW110475   5.018   1.193   3.180  0.9294 -1.4696  1.0172
 3552SOL    HW210476   4.918   1.219   3.307  0.2872 -0.5159  0.3288
 3553SOL     OW10477   0.134   0.586   1.839 -0.2080  0.2021 -0.0235
 3553SOL    HW110478   0.198   0.559   1.767  1.3510  3.4184 -0.0271
 3553SOL    HW210479   0.065   0.647   1.801  0.1213  1.2551  1.0000
 3554SOL     OW10480   2.695   0.691   3.895  0.3070 -0.2799  0.4002
 3554SOL    HW110481   2.769   0.706   3.961 -0.3115  0.3074  0.9749
 3554SOL    HW210482   2.653   0.779   3.872 -0.6902 -0.6888  0.6376
 3555SOL     OW10483   3.148   2.575   4.752 -0.1062 -0.0243 -0.3807
 3555SOL    HW110484   3.090   2.651   4.781  1.1134  0.6620  0.3647
 3555SOL    HW210485   3.243   2.606   4.747  0.2151 -1.1125 -1.5750
 3556SOL     OW10486   4.221   1.400   4.048  0.0076 -0.6949  0.6724
 3556SOL    HW110487   4.181   1.466   3.985  0.9312 -1.0491 -0.3252
 3556SOL    HW210488   4.228   1.310   4.003 -1.2715 -1.5087  2.0184
 3557SOL     OW10489   4.928   1.850   4.527  0.5854 -0.3156  0.2719
 3557SOL    HW110490   4.931   1.750   4.531 -0.0417 -0.3384  0.2806
 3557SOL    HW210491   4.879   1.878   4.445  2.9522  0.0208 -1.1402
 3558SOL     OW10492   4.523   0.877   3.195  0.2159 -0.5625 -0.4711
 3558SOL    HW110493   4.433   0.865   3.237  0.4851 -1.9074 -0.2610
 3558SOL    HW210494   4.588   0.813   3.236  1.1458  0.0236 -1.0059
 3559SOL     OW10495   4.256   2.670   3.483 -0.5017  0.3959 -0.2223
 3559SOL    HW110496   4.225   2.587   3.527 -0.6393  0.0679 -0.9167
 3559SOL    HW210497   4.183   2.707   3.425 -0.0428  0.3214 -0.8709
 3560SOL     OW10498   3.690   1.068   0.384 -0.0723 -0.1210  0.4563
 3560SOL    HW110499   3.730   0.983   0.350  0.3111  0.3144 -0.1975
 3560SOL    HW210500   3.597   1.050   0.417 -0.5604 -0.5242 -1.0471
 3561SOL     OW10501   5.032   4.649   2.855 -0.2906 -0.3431 -0.2830
 3561SOL    HW110502   4.975   4.705   2.915 -0.5143 -1.9964  1.1404
 3561SOL    HW210503   5.075   4.707   2.786 -3.0019  1.0717 -0.9039
 3562SOL     OW10504   2.964   4.574   0.564 -0.1142 -0.0810  0.3391
 3562SOL    HW110505   3.061   4.597   0.570 -0.1396 -0.3600  2.0871
 3562SOL    HW210506   2.909   4.652   0.593 -0.3492 -0.5260  1.1242
 3563SOL     OW10507   3.826   1.125   2.232  0.2487  0.4590  0.4318
 3563SOL    HW110508   3.896   1.104   2.164 -2.5768  1.7052 -3.1620
 3563SOL    HW210509   3.815   1.224   2.240 -1.1295  0.2995  0.8539
 3564SOL     OW10510   0.373   2.549   4.314  0.4016  0.1242 -0.0571
 3564SOL    HW110511   0.378   2.635   4.263 -0.2090 -0.0219 -0.3717
 3564SOL    HW210512   0.448   2.489   4.286 -0.0094 -0.0137 -0.9037
 3565SOL     OW10513   4.454   1.799   4.948  0.2365  0.0138 -0.5054
 3565SOL    HW110514   4.376   1.749   4.985  0.2542  1.6168  1.9160
 3565SOL    HW210515   4.423   1.857   4.872 -0.9814  0.5885  0.3838
 3566SOL     OW10516   1.091   1.979   3.791  0.3306 -0.5161 -0.3215
 3566SOL    HW110517   1.105   2.006   3.887  1.8050  0.1470 -0.6897
 3566SOL    HW210518   1.176   1.939   3.756  0.3262  0.7051 -1.8004
 3567SOL     OW10519   1.077   4.245   2.453  0.1376  0.0908  0.6513
 3567SOL    HW110520   1.173   4.246   2.426  0.3360  1.1090  1.3220
 3567SOL    HW210521   1.058   4.164   2.508  0.1537 -1.0658 -0.9788
 3568SOL     OW10522   2.613   3.783   3.990 -0.5953  0.1214 -0.2786
 3568SOL    HW110523   2.622   3.813   3.895 -2.1729  3.8443  0.5645
 3568SOL    HW210524   2.534   3.722   3.999 -0.4910 -0.1784 -1.3230
 3569SOL     OW10525   0.203   0.078   3.516 -0.0129  0.2423 -0.0367
 3569SOL    HW110526   0.153   0.110   3.436 -1.7401  0.1650  0.9436
 3569SOL    HW210527   0.162   0.117   3.599  1.3049 -0.1840  0.8537
 3570SOL     OW10528   3.772   3.961   3.375 -0.0302 -0.1272  1.1170
 3570SOL    HW110529   3.867   3.969   3.344 -0.8988  0.2786 -1.6530
 3570SOL    HW210530   3.719   4.038   3.340 -1.7927 -1.3294  1.0443
 3571SOL     OW10531   4.416   2.121   4.079  0.5454  1.0957 -0.1225
 3571SOL    HW110532   4.433   2.218   4.062 -1.0148  1.6057  1.0527
 3571SOL    HW210533   4.330   2.093   4.036  0.6856  0.3708  0.0415
 3572SOL     OW10534   0.259   4.733   0.841  0.5307 -0.2103  0.0691
 3572SOL    HW110535   0.344   4.752   0.792  1.6780 -0.4620  1.8434
 3572SOL    HW210536   0.220   4.818   0.876  1.4566 -0.3158  1.4104
 3573SOL     OW10537   2.221   0.924   3.547 -0.1014 -0.5277 -0.2381
 3573SOL    HW110538   2.294   0.959   3.489 -1.1386  0.6185 -0.8961
 3573SOL    HW210539   2.257   0.904   3.638  0.9300  0.4394 -0.4228
 3574SOL     OW10540   4.229   0.736   3.724 -0.2129 -0.4292  0.3331
 3574SOL    HW110541   4.223   0.680   3.641 -2.3671 -1.8378  1.3644
 3574SOL    HW210542   4.157   0.806   3.722 -0.1023 -0.2951  0.9084
 3575SOL     OW10543   3.742   1.325   3.307  0.3956 -0.3572 -0.2576
 3575SOL    HW110544   3.654   1.372   3.297  0.3055 -0.5178 -0.2191
 3575SOL    HW210545   3.727   1.226   3.309  0.4847 -0.3640  0.6882
 3576SOL     OW10546   0.487   1.101   0.468 -0.4850  0.3965 -0.4427
 3576SOL    HW110547   0.508   1.111   0.565 -2.8294 -0.5917  0.2260
 3576SOL    HW210548   0.568   1.068   0.419  0.8812  1.4168  1.0470
 3577SOL     OW10549   0.869   0.256   0.247  0.5863 -0.2651 -0.2831
 3577SOL    HW110550   0.775   0.225   0.257  0.5581  0.1542  1.0606
 3577SOL    HW210551   0.877   0.315   0.167 -0.7980  1.3878  0.7126
 3578SOL     OW10552   3.938   2.175   4.310  0.6272 -0.3875 -0.3272
 3578SOL    HW110553   3.926   2.264   4.266  1.4577  1.0815  2.1950
 3578SOL    HW210554   3.850   2.142   4.343  0.2082 -0.8692 -1.8674
 3579SOL     OW10555   3.211   0.775   4.296  0.0186 -0.2522 -0.5136
 3579SOL    HW110556   3.173   0.687   4.325  0.2931  0.1722  1.2186
 3579SOL    HW210557   3.141   0.846   4.305 -0.1280 -0.2247 -1.6791
 3580SOL     OW10558   0.128   1.321   1.163  0.4124  0.2375  0.2303
 3580SOL    HW110559   0.036   1.336   1.128 -0.6048  1.0023  2.9994
 3580SOL    HW210560   0.186   1.399   1.137 -0.0262  0.3089 -0.5499
 3581SOL     OW10561   4.473   0.655   3.782  0.1431  0.2675 -0.4393
 3581SOL    HW110562   4.381   0.689   3.766  0.3012 -0.1220 -2.4708
 3581SOL    HW210563   4.483   0.627   3.877 -1.5491  1.1069  0.0182
 3582SOL     OW10564   4.269   0.793   3.292  0.0881  0.2177  0.1004
 3582SOL    HW110565   4.257   0.726   3.365 -0.6392 -1.0084 -1.0850
 3582SOL    HW210566   4.257   0.747   3.203  0.6912  1.7064 -0.7793
 3583SOL     OW10567   3.577   1.002   4.584  0.2285 -0.3549  0.0501
 3583SOL    HW110568   3.492   0.976   4.538  0.2065 -0.4935  0.1711
 3583SOL    HW210569   3.654   0.953   4.542  0.1817 -0.6507  0.3070
 3584SOL     OW10570   0.288   4.592   4.077  0.5545 -0.0527  0.3116
 3584SOL    HW110571   0.345   4.654   4.130  2.4971 -0.8441 -0.7603
 3584SOL    HW210572   0.278   4.627   3.984 -2.0547  0.8559  0.8654
 3585SOL     OW10573   2.646   0.162   0.151 -0.5748  0.3464 -0.2657
 3585SOL    HW110574   2.548   0.141   0.161 -1.0051  1.0361 -2.3453
 3585SOL    HW210575   2.665   0.252   0.192 -0.6583 -0.0708  0.7095
 3586SOL     OW10576   2.621   1.467   0.840 -0.0398 -0.1290 -0.5566
 3586SOL    HW110577   2.637   1.530   0.916 -2.5627 -1.8483  1.5621
 3586SOL    HW210578   2.698   1.402   0.833 -0.3463 -0.7580  1.4345
 3587SOL     OW10579   3.640   5.007   4.260 -0.2583 -0.3060 -0.6267
 3587SOL    HW110580   3.736   5.026   4.279 -0.1803 -1.2097 -0.0304
 3587SOL    HW210581   3.594   4.980   4.345 -0.8857 -0.5070 -1.0209
 3588SOL     OW10582   4.941   1.040   4.272  0.0708  0.3416 -0.2878
 3588SOL    HW110583   4.882   1.028   4.193  2.6648 -0.3246 -2.2639
 3588SOL    HW210584   4.991   1.126   4.265 -1.9679  1.8991  2.3763
 3589SOL     OW10585   1.214   0.080   1.937  0.2440 -0.0635 -0.0268
 3589SOL    HW110586   1.218   0.135   2.020  1.3946  0.3331 -0.3217
 3589SOL    HW210587   1.125   0.094   1.892  0.9854  2.7606 -0.8499
 3590SOL     OW10588   4.735   2.274   4.162  0.0866 -0.0689  0.7301
 3590SOL    HW110589   4.749   2.253   4.259  1.2917 -0.2731  0.5225
 3590SOL    HW210590   4.688   2.363   4.154  1.4805  0.7691  1.4769
 3591SOL     OW10591   0.042   0.391   4.938  0.1924  0.1073 -0.2275
 3591SOL    HW110592  -0.047   0.402   4.982  0.4781  3.0832 -0.1801
 3591SOL    HW210593   0.115   0.399   5.006  0.5571  1.8062 -0.7719
 3592SOL     OW10594   3.926   4.899   3.795 -0.1156  0.0262  0.0288
 3592SOL    HW110595   3.963   4.832   3.859  1.3202 -0.5053 -1.2945
 3592SOL    HW210596   3.993   4.971   3.779 -0.9495  0.8306  0.0576
 3593SOL     OW10597   3.817   1.875   3.893  0.6070 -0.0233 -0.1859
 3593SOL    HW110598   3.853   1.889   3.801  0.3514 -0.9530 -0.4320
 3593SOL    HW210599   3.721   1.848   3.888  0.8576 -1.0560  0.2902
 3594SOL     OW10600   0.241   1.890   3.054 -0.4270 -0.2510  0.9146
 3594SOL    HW110601   0.268   1.796   3.034  0.5239  0.1523  0.1935
 3594SOL    HW210602   0.224   1.939   2.968  0.0116  0.4906  1.2410
 3595SOL     OW10603   1.438   1.509   0.321  0.1109 -0.1281 -0.1011
 3595SOL    HW110604   1.415   1.505   0.224  1.2443  1.3276 -0.4591
 3595SOL    HW210605   1.412   1.422   0.364 -2.6945  0.0876 -1.1436
 3596SOL     OW10606   1.792   1.801   0.878 -0.3485  0.4454  0.1764
 3596SOL    HW110607   1.892   1.809   0.875 -0.0926 -2.0854 -1.4666
 3596SOL    HW210608   1.764   1.773   0.969  0.7011 -0.7415  0.1723
 3597SOL     OW10609   1.304   2.441   4.934  0.4852  0.1171 -0.3995
 3597SOL    HW110610   1.377   2.373   4.939 -1.1826 -1.8998 -1.5881
 3597SOL    HW210611   1.298   2.491   5.020  4.2893  1.6157 -0.7891
 3598SOL     OW10612   3.952   1.985   0.592 -0.1434 -1.0252  0.0586
 3598SOL    HW110613   4.025   1.946   0.649  0.6751  2.3766  1.6058
 3598SOL    HW210614   3.988   2.064   0.542 -2.6429  0.5616  0.6050
 3599SOL     OW10615   3.167   1.140   0.218  0.7652  0.3835 -0.0036
 3599SOL    HW110616   3.194   1.044   0.208  0.2110  0.3283 -1.0438
 3599SOL    HW210617   3.170   1.185   0.129 -1.0615  0.7770  0.0945
 3600SOL     OW10618   2.540   0.918   0.638 -0.7794  0.0844  0.2568
 3600SOL    HW110619   2.574   0.923   0.545 -1.6168 -0.9903 -0.1300
 3600SOL    HW210620   2.450   0.875   0.639 -1.5404  1.5609  1.3874
 3601SOL     OW10621   2.428   0.459   1.772  0.3543 -0.0801 -0.1792
 3601SOL    HW110622   2.524   0.460   1.801  0.5072  2.6828 -0.5153
 3601SOL    HW210623   2.424   0.459   1.672 -0.0087 -0.3905 -0.1658
 3602SOL     OW10624   3.195   1.180   1.194  0.5771 -0.2825  0.0735
 3602SOL    HW110625   3.178   1.215   1.286  3.9696  2.7006 -0.2484
 3602SOL    HW210626   3.238   1.090   1.200  2.0274  0.4691  1.5230
 3603SOL     OW10627   3.995   2.889   4.192  0.1435 -0.0534  0.1985
 3603SOL    HW110628   3.915   2.945   4.212 -0.5287 -0.5607 -0.9543
 3603SOL    HW210629   4.042   2.924   4.111  1.9199  1.0528  1.6220
 3604SOL     OW10630   4.504   1.743   4.080  0.1173  0.4553 -0.2792
 3604SOL    HW110631   4.520   1.817   4.145  0.5330 -0.5319  0.7632
 3604SOL    HW210632   4.514   1.655   4.126 -1.7906 -0.2665 -1.1668
 3605SOL     OW10633   1.667   1.198   0.420  0.5894  0.4788  0.4755
 3605SOL    HW110634   1.726   1.122   0.391  1.2394  0.4230  1.8553
 3605SOL    HW210635   1.707   1.241   0.501 -0.7881  1.0572  0.8685
 3606SOL     OW10636   0.789   4.706   4.810  0.0992 -0.5513 -0.1534
 3606SOL    HW110637   0.701   4.669   4.840  0.3042 -2.6701 -1.9265
 3606SOL    HW210638   0.778   4.802   4.785 -1.2799 -0.2790  1.3119
 3607SOL     OW10639   3.368   2.696   0.840  0.5523 -0.0027 -0.4476
 3607SOL    HW110640   3.378   2.741   0.751  0.1163  0.7474 -0.1276
 3607SOL    HW210641   3.291   2.632   0.836  1.8847 -1.6217 -1.2487
 3608SOL     OW10642   3.489   1.433   3.764  0.0955 -0.1701  0.2737
 3608SOL    HW110643   3.465   1.423   3.668 -1.0253 -0.6296  0.5860
 3608SOL    HW210644   3.575   1.484   3.772  0.3073 -0.3040 -0.9660
 3609SOL     OW10645   4.932   0.032   2.845  0.0228  0.0228 -0.1334
 3609SOL    HW110646   4.849   0.075   2.810  0.0516 -1.4675 -2.1868
 3609SOL    HW210647   4.936   0.045   2.945 -2.5598  0.3081  0.0070
 3610SOL     OW10648   1.176   1.959   3.398  0.1063  0.2980  0.3564
 3610SOL    HW110649   1.231   2.025   3.450 -2.0734  0.8662  2.1380
 3610SOL    HW210650   1.083   1.957   3.436 -0.2151 -3.0502 -0.3460
 3611SOL     OW10651   4.577   4.491   5.002  0.2434 -0.2061 -0.0127
 3611SOL    HW110652   4.521   4.459   4.925 -2.4154  2.1048  0.8099
 3611SOL    HW210653   4.668   4.516   4.968 -0.5951  0.0599 -2.2664
 3612SOL     OW10654   3.132   2.563   4.042 -0.0191 -0.2250 -0.5713
 3612SOL    HW110655   3.229   2.578   4.021  0.3772 -0.8850  0.6699
 3612SOL    HW210656   3.124   2.498   4.117 -1.4140  0.3146 -0.2177
 3613SOL     OW10657   3.831   0.530   4.374  0.0950 -0.0197 -0.5307
 3613SOL    HW110658   3.884   0.450   4.400  0.8942  1.0097  1.2332
 3613SOL    HW210659   3.868   0.569   4.289  0.7057 -0.6062 -0.5414
 3614SOL     OW10660   4.527   1.252   0.607 -0.4560 -0.3512  0.4450
 3614SOL    HW110661   4.576   1.296   0.683 -0.7366 -0.3115  0.6046
 3614SOL    HW210662   4.429   1.248   0.629 -0.5785 -0.0812 -0.0418
 3615SOL     OW10663   4.852   1.128   4.893  0.7293  0.5503 -0.3107
 3615SOL    HW110664   4.810   1.093   4.809 -0.3795 -0.3443  0.5764
 3615SOL    HW210665   4.868   1.226   4.884 -3.2878  1.4144 -0.0884
 3616SOL     OW10666   2.269   1.111   4.306  0.4005 -0.1949 -0.0913
 3616SOL    HW110667   2.213   1.163   4.241  0.2517 -2.0510 -1.5333
 3616SOL    HW210668   2.319   1.039   4.257  0.7707 -1.2661  1.7749
 3617SOL     OW10669   1.490   2.827   3.290  0.2594  0.1377 -0.0217
 3617SOL    HW110670   1.443   2.893   3.231 -0.8974 -0.4230  0.2421
 3617SOL    HW210671   1.561   2.780   3.238  0.9890  1.4676 -0.2570
 3618SOL     OW10672   1.955   1.705   4.837  0.4218 -0.3462 -0.0225
 3618SOL    HW110673   1.952   1.757   4.751  0.9224 -0.1804  0.0584
 3618SOL    HW210674   1.930   1.610   4.819 -2.1419  0.2160  0.0765
 3619SOL     OW10675   1.663   0.951   3.322  0.3212 -0.5994 -0.1496
 3619SOL    HW110676   1.714   1.011   3.261  3.2261 -0.3519  2.2598
 3619SOL    HW210677   1.721   0.926   3.400 -2.1979 -3.1641  1.0951
 3620SOL     OW10678   2.437   1.681   0.244  0.0612 -0.1940  0.1254
 3620SOL    HW110679   2.364   1.626   0.204  0.3668 -0.0260 -0.6972
 3620SOL    HW210680   2.501   1.622   0.293  0.2935 -0.5692 -0.6026
 3621SOL     OW10681   3.518   4.961   3.834 -0.6586  0.0185  0.2622
 3621SOL    HW110682   3.551   5.005   3.918  0.6060 -1.1082  0.3921
 3621SOL    HW210683   3.595   4.919   3.786 -1.4086  0.3721 -1.3182
 3622SOL     OW10684   0.901   0.944   4.250 -0.1963 -0.0898 -0.3334
 3622SOL    HW110685   0.815   0.905   4.219 -0.0298 -1.9074  1.2671
 3622SOL    HW210686   0.937   1.006   4.181 -1.5215 -1.2374 -2.1312
 3623SOL     OW10687   0.412   2.258   4.474 -0.4812 -0.2982 -0.4496
 3623SOL    HW110688   0.409   2.357   4.466  0.4333 -0.1924  0.3249
 3623SOL    HW210689   0.320   2.221   4.465 -1.1508  0.8085  1.3190
 3624SOL     OW10690   1.955   4.342   1.337  0.5165  0.0058 -0.7637
 3624SOL    HW110691   1.917   4.423   1.380  0.3660 -0.7931  0.6638
 3624SOL    HW210692   1.886   4.299   1.279 -0.4554 -0.8145  0.9404
 3625SOL     OW10693   4.897   1.350   1.065 -0.2361 -0.4498 -0.4585
 3625SOL    HW110694   4.841   1.271   1.092 -0.2344  0.3507  2.1531
 3625SOL    HW210695   4.839   1.418   1.021 -1.1914 -0.0663  1.2862
 3626SOL     OW10696   4.700   2.651   3.337  0.7396 -0.0580 -0.5655
 3626SOL    HW110697   4.775   2.716   3.327  0.4602  0.1989 -1.0368
 3626SOL    HW210698   4.620   2.698   3.376  0.8351 -0.3429 -0.0064
 3627SOL     OW10699   4.392   1.394   3.361 -0.0414  0.6220 -0.1377
 3627SOL    HW110700   4.433   1.448   3.434  1.8410 -1.4865  0.4860
 3627SOL    HW210701   4.441   1.410   3.275  1.7126 -1.2796  0.4291
 3628SOL     OW10702   0.303   1.835   4.303  0.1063  0.2571 -0.7045
 3628SOL    HW110703   0.370   1.848   4.229  1.9948  4.1245  1.4051
 3628SOL    HW210704   0.249   1.918   4.314 -0.5612 -0.4335  1.8131
 3629SOL     OW10705   4.283   2.340   3.838 -0.2299 -0.5798 -0.0142
 3629SOL    HW110706   4.240   2.397   3.768  2.8985  2.8808  0.5526
 3629SOL    HW210707   4.354   2.283   3.796 -1.3716 -1.9475 -0.1652
 3630SOL     OW10708   4.953   1.761   2.993  0.2436 -0.5568  0.3185
 3630SOL    HW110709   4.901   1.692   3.043 -1.9629  1.3948  0.9037
 3630SOL    HW210710   4.954   1.846   3.046 -1.3666  1.3306 -2.4302
 3631SOL     OW10711   4.347   2.883   4.055 -0.0745  0.1128  0.3904
 3631SOL    HW110712   4.340   2.862   4.152  0.0386 -3.7491 -0.2601
 3631SOL    HW210713   4.443   2.887   4.029 -0.0311 -1.8071  0.0498
 3632SOL     OW10714   2.705   1.417   4.702 -0.7517 -0.0883 -0.0742
 3632SOL    HW110715   2.762   1.365   4.637 -1.6807 -1.0556 -0.1263
 3632SOL    HW210716   2.611   1.418   4.670 -1.1788 -0.3604  1.1405
 3633SOL     OW10717   4.820   2.213   2.926  0.0201  0.3032 -0.3775
 3633SOL    HW110718   4.743   2.244   2.982 -1.0180 -0.5728 -1.2661
 3633SOL    HW210719   4.878   2.153   2.981 -2.2082 -2.3848 -0.7355
 3634SOL     OW10720   4.797   2.179   0.000 -0.0622 -0.2931 -0.4334
 3634SOL    HW110721   4.883   2.200  -0.047  0.0887  0.2058  0.0563
 3634SOL    HW210722   4.800   2.084   0.034  0.0072 -0.5058 -1.0265
 3635SOL     OW10723   0.593   2.066   4.579 -0.0558 -0.6094 -0.2298
 3635SOL    HW110724   0.650   2.112   4.647 -0.0283 -0.5722 -0.2775
 3635SOL    HW210725   0.529   2.131   4.539  0.8000 -0.3172 -1.1740
 3636SOL     OW10726   2.230   1.460   4.870  0.0781  0.1777 -0.1245
 3636SOL    HW110727   2.240   1.434   4.966  0.0853  1.6696  0.2894
 3636SOL    HW210728   2.160   1.403   4.828  0.5172 -0.9232  0.5862
 3637SOL     OW10729   1.100   3.077   0.922  0.6976 -0.0428 -0.2854
 3637SOL    HW110730   1.128   3.173   0.930  0.2146 -0.0109  1.6008
 3637SOL    HW210731   1.014   3.072   0.871  1.0771  0.4455 -0.9955
 3638SOL     OW10732   2.754   2.686   4.615 -0.0336  0.2839  0.4029
 3638SOL    HW110733   2.673   2.668   4.671 -1.2560 -1.4581 -1.7139
 3638SOL    HW210734   2.824   2.618   4.635  0.5400  1.1908  1.5408
 3639SOL     OW10735   0.991   1.514   4.532 -0.6927 -0.3104  0.0222
 3639SOL    HW110736   0.906   1.565   4.523 -0.7363 -0.6218 -1.4637
 3639SOL    HW210737   1.029   1.496   4.442  0.5631 -0.8359  0.6363
 3640SOL     OW10738   3.278   2.523   1.853 -0.3299  0.2483 -0.3258
 3640SOL    HW110739   3.299   2.577   1.771 -0.5844  1.8074  0.5936
 3640SOL    HW210740   3.340   2.550   1.927  0.4490 -1.7332 -0.1973
 3641SOL     OW10741   1.582   3.282   1.259 -0.3341  0.9424  0.0423
 3641SOL    HW110742   1.626   3.306   1.172 -0.1270 -1.5627 -0.6236
 3641SOL    HW210743   1.485   3.305   1.254 -0.1787  1.5153 -0.5635
 3642SOL     OW10744   0.660   3.007   1.611 -0.0765  0.7092  0.1464
 3642SOL    HW110745   0.703   3.097   1.613  2.0016 -0.2506  0.4358
 3642SOL    HW210746   0.577   3.012   1.554  0.6669  2.4931 -0.8802
 3643SOL     OW10747   5.017   2.468   0.410 -0.3198  0.2586  0.0400
 3643SOL    HW110748   5.013   2.405   0.333 -1.1918 -1.3930  1.3616
 3643SOL    HW210749   5.113   2.484   0.435 -0.0508  0.3805 -1.0070
 3644SOL     OW10750   4.955   2.866   3.046  0.3519 -0.1250 -0.5801
 3644SOL    HW110751   5.038   2.919   3.028 -1.2733  2.3015 -1.3802
 3644SOL    HW210752   4.903   2.855   2.962 -1.6393  1.1512  0.4198
 3645SOL     OW10753   0.793   3.346   4.319  0.2222 -0.5485 -0.1932
 3645SOL    HW110754   0.714   3.406   4.328 -0.1310 -0.7918 -1.4369
 3645SOL    HW210755   0.848   3.349   4.403 -0.0930  1.0584 -0.0174
 3646SOL     OW10756   0.101   1.947   0.635  0.3613 -0.2028 -0.4390
 3646SOL    HW110757   0.027   1.972   0.573  0.3024  1.6775  0.3198
 3646SOL    HW210758   0.173   2.017   0.630  0.8410 -0.5908  0.7900
 3647SOL     OW10759   4.258   2.651   1.212 -0.1293 -0.2692 -0.1089
 3647SOL    HW110760   4.225   2.741   1.185 -0.1141 -0.0725  0.5016
 3647SOL    HW210761   4.193   2.581   1.185  0.2495 -0.1670 -1.3352
 3648SOL     OW10762   4.138   3.985   0.529 -0.6242 -0.1743 -0.0698
 3648SOL    HW110763   4.122   3.969   0.627 -0.6337 -0.8108 -0.1724
 3648SOL    HW210764   4.053   3.969   0.479 -0.6771  0.3787 -0.1574
 3649SOL     OW10765   4.476   2.559   0.937 -0.7729 -0.0365 -0.3094
 3649SOL    HW110766   4.543   2.571   0.864 -0.1186 -1.8021 -0.0410
 3649SOL    HW210767   4.500   2.479   0.992 -2.2013  0.2587  0.8072
 3650SOL     OW10768   1.115   2.398   4.071 -0.7204 -0.1499  0.4109
 3650SOL    HW110769   1.066   2.482   4.046 -2.1146 -1.0733 -0.0380
 3650SOL    HW210770   1.103   2.380   4.168  0.1720  0.5309  0.6596
 3651SOL     OW10771   3.676   1.822   4.854 -0.3896 -0.4146  0.3102
 3651SOL    HW110772   3.664   1.766   4.772 -0.4842 -0.3545  0.2825
 3651SOL    HW210773   3.770   1.857   4.857  0.2426 -2.0776  1.2862
 3652SOL     OW10774   4.495   2.533   4.847 -0.2380 -0.4915 -0.2846
 3652SOL    HW110775   4.575   2.516   4.789  0.8933  2.0193  0.3834
 3652SOL    HW210776   4.414   2.542   4.790  0.4940 -0.1282 -1.3011
 3653SOL     OW10777   0.719   0.830   1.154 -0.6132 -0.2218  0.3478
 3653SOL    HW110778   0.664   0.913   1.154 -0.9250 -0.4131 -0.4392
 3653SOL    HW210779   0.810   0.849   1.191 -0.0025  0.9588 -1.5788
 3654SOL     OW10780   3.002   2.320   0.880  0.8015 -0.3501  0.0520
 3654SOL    HW110781   2.937   2.295   0.808  1.5153  1.7109 -1.3914
 3654SOL    HW210782   3.035   2.237   0.925  0.2610 -1.7107 -1.9177
 3655SOL     OW10783   4.013   1.485   1.235 -0.2447  0.0593 -0.0512
 3655SOL    HW110784   4.014   1.450   1.329  0.8369  1.1514  0.3699
 3655SOL    HW210785   3.918   1.499   1.206 -0.6168 -0.9642  0.6049
 3656SOL     OW10786   4.029   2.716   0.655  0.1721  0.6877 -0.1383
 3656SOL    HW110787   4.110   2.661   0.677 -0.2503 -0.3563 -1.1272
 3656SOL    HW210788   3.947   2.667   0.683 -0.1621  1.4868  0.3173
 3657SOL     OW10789   0.738   3.263   1.628  0.4698  0.7527 -0.4490
 3657SOL    HW110790   0.734   3.262   1.728  1.5145  0.8023 -0.3994
 3657SOL    HW210791   0.725   3.356   1.595 -1.3781  0.5377 -0.4551
 3658SOL     OW10792   4.881   2.391   0.816  0.6018  0.1565  0.2878
 3658SOL    HW110793   4.826   2.462   0.859  1.5641 -0.9074  3.5469
 3658SOL    HW210794   4.821   2.323   0.774 -0.5457  0.1972  1.7715
 3659SOL     OW10795   3.361   2.662   1.633  0.5473  0.1161  0.3020
 3659SOL    HW110796   3.291   2.724   1.598  1.2139 -0.3071 -1.9069
 3659SOL    HW210797   3.385   2.595   1.563  3.0655  0.1696  1.0033
 3660SOL     OW10798   3.860   2.166   0.024  0.0255 -0.0143  0.2708
 3660SOL    HW110799   3.925   2.241   0.035 -0.1618  0.0628  0.9328
 3660SOL    HW210800   3.767   2.202   0.033 -0.0568 -0.3713  0.9450
 3661SOL     OW10801   0.040   1.703   2.381 -0.2932  0.2377  0.0115
 3661SOL    HW110802  -0.033   1.749   2.432  0.4001  1.2625  0.1095
 3661SOL    HW210803   0.033   1.604   2.394 -0.2111  0.4533  2.0074
 3662SOL     OW10804   0.262   3.678   4.875 -0.0385  0.1912  0.0329
 3662SOL    HW110805   0.276   3.734   4.957  0.8852 -0.7721  0.5487
 3662SOL    HW210806   0.166   3.684   4.847 -0.2331  1.0045  0.8354
 3663SOL     OW10807   4.126   3.438   0.417 -0.0991 -0.5438 -0.0663
 3663SOL    HW110808   4.194   3.462   0.349 -1.3357  0.5429 -0.9675
 3663SOL    HW210809   4.161   3.365   0.475  1.4424 -0.6630 -1.1013
 3664SOL     OW10810   0.050   2.860   0.581 -0.1877 -0.4749  0.9894
 3664SOL    HW110811   0.045   2.769   0.621  0.7323 -0.8793  0.2299
 3664SOL    HW210812   0.143   2.876   0.547 -0.6900  0.1999 -0.1185
 3665SOL     OW10813   0.504   3.007   4.859 -0.2465 -0.1212 -0.2492
 3665SOL    HW110814   0.566   3.023   4.936  0.8922  1.2081 -1.3951
 3665SOL    HW210815   0.544   2.940   4.798 -0.8677 -0.7153 -0.0178
 3666SOL     OW10816   4.615   3.167   0.503 -0.9549 -0.2481  0.2102
 3666SOL    HW110817   4.580   3.075   0.485 -0.6634 -0.0931 -1.2453
 3666SOL    HW210818   4.551   3.234   0.467 -0.8935  0.1139  0.7717
 3667SOL     OW10819   2.653   4.721   2.524  0.0761 -0.0861  0.1585
 3667SOL    HW110820   2.723   4.680   2.466  0.9594 -0.7237  1.6148
 3667SOL    HW210821   2.595   4.781   2.469  3.1565  2.3120 -0.7074
 3668SOL     OW10822   4.156   2.003   4.288 -0.6347 -0.5102 -0.0846
 3668SOL    HW110823   4.130   1.909   4.313 -1.0889 -0.0507  1.2590
 3668SOL    HW210824   4.074   2.060   4.284 -0.5579 -0.5014 -2.5244
 3669SOL     OW10825   0.279   2.790   1.672 -0.4909 -0.3859 -0.0323
 3669SOL    HW110826   0.222   2.849   1.614  0.3619  1.4700  0.9444
 3669SOL    HW210827   0.223   2.717   1.709 -1.6521 -0.0813 -1.1088
 3670SOL     OW10828   3.103   4.085   4.073 -0.0316  0.0859 -0.0368
 3670SOL    HW110829   3.015   4.075   4.119 -0.4048  0.3588 -0.6806
 3670SOL    HW210830   3.148   4.168   4.105  0.1324 -0.2122  0.5154
 3671SOL     OW10831   3.221   3.180   1.528  0.2243 -0.4182  0.5259
 3671SOL    HW110832   3.198   3.258   1.586 -0.9811  1.4613 -2.2369
 3671SOL    HW210833   3.181   3.193   1.437  1.9847 -3.1721 -0.7969
 3672SOL     OW10834   4.501   2.855   0.468 -0.1162 -0.1948 -0.1249
 3672SOL    HW110835   4.567   2.867   0.394 -0.2293 -2.4747 -0.6626
 3672SOL    HW210836   4.411   2.886   0.439  0.1236  0.2319 -0.4192
 3673SOL     OW10837   4.225   2.880   4.901  0.9725 -0.3766  0.0700
 3673SOL    HW110838   4.310   2.894   4.952  1.8402 -4.0662 -0.1094
 3673SOL    HW210839   4.148   2.874   4.965  0.8095  2.3152  0.2704
 3674SOL     OW10840   3.907   1.947   4.900  0.2238 -0.3681  0.4348
 3674SOL    HW110841   3.934   1.995   4.984 -0.7540  1.0020  0.0068
 3674SOL    HW210842   3.843   2.004   4.848 -1.2176 -2.2552  0.0109
 3675SOL     OW10843   0.499   2.776   0.075 -0.1842 -0.1743  0.2427
 3675SOL    HW110844   0.553   2.849   0.033 -2.1242  0.4937 -1.2348
 3675SOL    HW210845   0.415   2.814   0.114 -0.0334 -1.2882  1.7526
 3676SOL     OW10846   0.186   1.410   2.084  0.3078 -0.3686  0.2967
 3676SOL    HW110847   0.219   1.352   2.159 -1.1692 -0.3265  1.0326
 3676SOL    HW210848   0.122   1.478   2.121  0.9525  0.8566 -0.7575
 3677SOL     OW10849   1.074   3.319   0.599 -0.1865 -0.2516  0.5380
 3677SOL    HW110850   1.106   3.270   0.518 -1.6544 -1.0148  0.3852
 3677SOL    HW210851   1.080   3.418   0.583  1.1359 -0.3734  0.1753
 3678SOL     OW10852   3.349   3.797   4.574  0.6768 -0.5949  0.2993
 3678SOL    HW110853   3.397   3.723   4.621  0.6623 -0.7959 -0.0007
 3678SOL    HW210854   3.405   3.830   4.497 -0.4213 -2.0493 -1.1839
 3679SOL     OW10855   4.445   2.892   5.036 -0.2866  0.2558 -0.5725
 3679SOL    HW110856   4.539   2.907   5.007  0.4255  1.0251  1.8967
 3679SOL    HW210857   4.438   2.804   5.083 -0.4578  0.7902  0.4366
 3680SOL     OW10858   4.183   3.238   0.574 -0.4038  0.2815  0.5360
 3680SOL    HW110859   4.091   3.238   0.612  0.1808  1.6949  2.0991
 3680SOL    HW210860   4.249   3.225   0.649  0.7155  0.7458 -0.3493
 3681SOL     OW10861   4.369   1.807   0.759 -0.5648  0.4168 -0.2271
 3681SOL    HW110862   4.356   1.814   0.858  0.7816 -0.8141  0.0777
 3681SOL    HW210863   4.435   1.875   0.729 -0.4497  0.3377 -0.1553
 3682SOL     OW10864   0.503   2.061   0.341  0.5208 -0.1054 -0.8895
 3682SOL    HW110865   0.405   2.063   0.326  0.8077  0.9193 -2.9931
 3682SOL    HW210866   0.543   2.150   0.317  1.9385 -0.4109  0.1709
 3683SOL     OW10867   2.762   4.313   0.208  0.2544  0.6586  0.3653
 3683SOL    HW110868   2.775   4.391   0.269  0.4048  0.1660  0.9619
 3683SOL    HW210869   2.849   4.290   0.164  0.4369  0.1920  0.9597
 3684SOL     OW10870   0.559   3.209   3.943  0.0848 -0.0001 -0.0615
 3684SOL    HW110871   0.633   3.168   3.996  0.0796 -1.4383 -1.1029
 3684SOL    HW210872   0.496   3.136   3.913 -0.8239  0.9893 -0.6159
 3685SOL     OW10873   4.895   2.852   0.363 -0.5318 -0.1066 -0.4205
 3685SOL    HW110874   4.972   2.855   0.428  0.1873 -0.0710 -1.2613
 3685SOL    HW210875   4.926   2.884   0.274 -1.5220 -0.1469 -0.7819
 3686SOL     OW10876   2.425   1.347   1.132  0.3220  0.4774 -0.4872
 3686SOL    HW110877   2.380   1.435   1.126  0.5697  0.5993 -0.5831
 3686SOL    HW210878   2.357   1.274   1.137  0.1183  0.6570 -0.6470
 3687SOL     OW10879   3.862   2.440   1.567 -0.1867  0.4806  0.0354
 3687SOL    HW110880   3.789   2.374   1.549  0.2825 -0.1145  0.2972
 3687SOL    HW210881   3.823   2.521   1.612 -0.9657  0.9201 -1.3569
 3688SOL     OW10882   4.948   2.630   4.248 -0.3961  0.5474 -0.0448
 3688SOL    HW110883   4.974   2.546   4.200 -1.5519  0.6313 -0.8848
 3688SOL    HW210884   4.899   2.690   4.184  0.1353  1.7312  0.6255
 3689SOL     OW10885   0.473   3.268   1.031 -0.0345 -0.0792 -0.0686
 3689SOL    HW110886   0.420   3.346   1.063  0.9934  0.7870 -0.4347
 3689SOL    HW210887   0.420   3.216   0.964 -0.9185 -0.0018  0.5546
 3690SOL     OW10888   0.144   2.270   0.791  0.3387 -0.1986 -0.6607
 3690SOL    HW110889   0.200   2.348   0.822  1.9168 -0.6060 -2.2696
 3690SOL    HW210890   0.048   2.296   0.792  0.6800  1.1718  0.5006
 3691SOL     OW10891   4.499   3.116   4.685  0.5740  0.0962  0.0646
 3691SOL    HW110892   4.522   3.212   4.696  0.0052 -0.0363  3.3495
 3691SOL    HW210893   4.400   3.104   4.693  0.2203 -0.4967 -3.5712
 3692SOL     OW10894   4.943   0.537   4.196 -0.4519 -0.3322  0.1718
 3692SOL    HW110895   4.865   0.541   4.259  0.6085  0.6514  1.4968
 3692SOL    HW210896   4.915   0.568   4.106 -1.6196 -0.0872  0.6020
 3693SOL     OW10897   0.085   4.195   4.408  0.1048 -0.1476 -1.0031
 3693SOL    HW110898   0.056   4.124   4.345  0.0777  0.6592 -1.9303
 3693SOL    HW210899   0.140   4.263   4.359 -1.0758  1.2419 -0.5004
 3694SOL     OW10900   3.011   1.755   1.130  0.8177 -0.3255 -0.1038
 3694SOL    HW110901   2.950   1.821   1.086 -0.5745  1.4700  3.9973
 3694SOL    HW210902   3.015   1.671   1.075 -1.2391  1.3436 -3.0855
 3695SOL     OW10903   4.074   1.789   2.143  0.4049  0.0085  0.6090
 3695SOL    HW110904   4.135   1.840   2.083 -1.2573 -1.5755 -2.7175
 3695SOL    HW210905   4.019   1.853   2.197  0.2269  1.7250 -1.4602
 3696SOL     OW10906   3.279   2.119   0.569 -1.1128  0.6271 -0.4106
 3696SOL    HW110907   3.228   2.198   0.603 -1.4100  1.2345 -2.1917
 3696SOL    HW210908   3.362   2.106   0.625 -0.9282  2.3451 -0.2421
 3697SOL     OW10909   4.633   4.055   0.255  0.2668  0.1092  0.0569
 3697SOL    HW110910   4.601   4.029   0.347  0.0186 -0.9684 -0.3250
 3697SOL    HW210911   4.615   4.152   0.240  0.2642  0.2869  1.1308
 3698SOL     OW10912   4.360   3.549   4.472 -0.1443  0.5502  0.6287
 3698SOL    HW110913   4.373   3.613   4.397 -0.8628 -0.0561 -0.0408
 3698SOL    HW210914   4.430   3.478   4.469 -1.1907 -0.4961 -0.5985
 3699SOL     OW10915   2.639   4.434   1.174 -0.2408 -0.3758  0.0187
 3699SOL    HW110916   2.612   4.440   1.270 -1.3785 -0.6557 -0.2764
 3699SOL    HW210917   2.610   4.517   1.127  2.2065  0.7582  0.3394
 3700SOL     OW10918   4.805   2.755   2.844 -0.1264  0.3546 -0.3619
 3700SOL    HW110919   4.828   2.659   2.827 -1.6845  0.2037 -1.9605
 3700SOL    HW210920   4.774   2.796   2.758 -0.0987  2.1270  0.4478
 3701SOL     OW10921   4.695   4.417   2.088  0.0424 -0.2146 -0.5395
 3701SOL    HW110922   4.774   4.474   2.065 -0.0193 -0.0789 -0.4238
 3701SOL    HW210923   4.651   4.454   2.170 -0.9276  0.4994 -1.3486
 3702SOL     OW10924   2.228   2.224   0.743 -0.0051 -0.9325 -0.8142
 3702SOL    HW110925   2.204   2.312   0.784  0.5963 -1.0212 -0.2671
 3702SOL    HW210926   2.169   2.208   0.663  0.7069  0.5439 -1.6991
 3703SOL     OW10927   4.437   1.506   0.918  1.0162 -0.3568  0.2495
 3703SOL    HW110928   4.339   1.494   0.903  1.3407 -0.7141 -1.8546
 3703SOL    HW210929   4.480   1.537   0.833  2.6098  0.6479  1.3783
 3704SOL     OW10930   4.103   3.076   0.861  0.6936 -0.3945 -0.5338
 3704SOL    HW110931   4.066   3.101   0.950  0.1220  0.8015 -1.0896
 3704SOL    HW210932   4.178   3.137   0.837 -0.1633  0.2891 -1.5382
 3705SOL     OW10933   2.043   1.802   0.027  0.2859 -0.2533  0.1415
 3705SOL    HW110934   2.044   1.774  -0.069 -0.3253  0.0162  0.0510
 3705SOL    HW210935   1.971   1.870   0.041  2.2473  1.9578  0.1584
 3706SOL     OW10936   4.343   2.791   4.641 -0.3197  0.0940  0.6118
 3706SOL    HW110937   4.429   2.837   4.618  0.9594 -1.6567  1.6300
 3706SOL    HW210938   4.303   2.834   4.721  0.4706 -0.0682  1.1087
 3707SOL     OW10939   4.273   4.325   2.240  0.2246  0.0649 -0.0125
 3707SOL    HW110940   4.246   4.388   2.168  0.0937  0.2560  0.2031
 3707SOL    HW210941   4.279   4.232   2.203  0.1910  0.1668 -0.2749
 3708SOL     OW10942   3.375   3.716   2.392 -0.2704 -0.1332  0.0616
 3708SOL    HW110943   3.277   3.723   2.372  0.0574  0.7597 -1.3871
 3708SOL    HW210944   3.393   3.630   2.439 -1.6784 -0.5490 -0.1001
 3709SOL     OW10945   4.329   1.541   2.144 -0.0128 -0.0832  0.2429
 3709SOL    HW110946   4.300   1.631   2.176  0.7609  0.0784  0.4989
 3709SOL    HW210947   4.248   1.486   2.121 -0.4939  0.5875  0.3145
 3710SOL     OW10948   3.799   3.022   1.286 -0.1846 -0.3362  0.2668
 3710SOL    HW110949   3.751   2.937   1.307 -1.1051 -0.0454 -0.5709
 3710SOL    HW210950   3.733   3.097   1.279  0.4442  0.1672 -0.4473
 3711SOL     OW10951   3.005   2.558   0.188 -0.1101 -0.9839 -0.4181
 3711SOL    HW110952   2.943   2.492   0.145  0.7472 -2.8077  1.0097
 3711SOL    HW210953   2.953   2.615   0.252 -0.7782 -0.5297 -1.3273
 3712SOL     OW10954   4.666   2.930   1.843  0.5721  0.5815  0.0024
 3712SOL    HW110955   4.702   2.916   1.751 -0.3842 -0.1243 -0.2739
 3712SOL    HW210956   4.729   2.890   1.910  1.1027  0.8035 -0.3544
 3713SOL     OW10957   3.982   1.162   4.607  0.5578  0.0836 -0.2059
 3713SOL    HW110958   3.940   1.252   4.618 -0.8760 -0.7571  1.8013
 3713SOL    HW210959   4.075   1.164   4.642 -0.3827  0.1786  2.5092
 3714SOL     OW10960   0.067   1.547   0.798  0.1853  0.2239 -0.3124
 3714SOL    HW110961  -0.008   1.508   0.744 -0.0562 -0.5024  0.5230
 3714SOL    HW210962   0.028   1.605   0.870  0.3048 -1.6444  1.3083
 3715SOL     OW10963   4.898   2.016   2.236  0.3217  0.5610  0.2090
 3715SOL    HW110964   4.996   2.031   2.247  0.2512  1.1509  0.0748
 3715SOL    HW210965   4.865   1.956   2.310  1.0689 -1.0102 -0.6858
 3716SOL     OW10966   2.461   4.525   5.033 -0.4702  0.2124 -0.4055
 3716SOL    HW110967   2.510   4.587   5.094 -0.1654 -0.3228 -0.1009
 3716SOL    HW210968   2.365   4.555   5.026 -0.2843  0.8329 -0.4269
 3717SOL     OW10969   1.670   3.682   1.546  0.8258  0.0184 -0.2907
 3717SOL    HW110970   1.731   3.760   1.533 -0.0061  0.6581 -0.4287
 3717SOL    HW210971   1.706   3.603   1.496  1.1724  0.5772 -0.9434
 3718SOL     OW10972   0.263   2.465   0.502 -0.0500  0.2047  0.1766
 3718SOL    HW110973   0.360   2.464   0.478 -0.4409 -0.9910 -1.5262
 3718SOL    HW210974   0.250   2.515   0.588  2.1706 -0.3985  0.9220
 3719SOL     OW10975   3.960   1.056   1.411 -0.0180  0.1027 -0.7521
 3719SOL    HW110976   4.020   1.093   1.340 -1.0362  1.9687 -0.7180
 3719SOL    HW210977   3.881   1.011   1.369 -0.7022  1.3440 -0.8753
 3720SOL     OW10978   4.000   2.836   1.669  0.4295 -0.2074  0.0239
 3720SOL    HW110979   4.055   2.886   1.736 -0.4398 -0.1686  0.7308
 3720SOL    HW210980   4.059   2.802   1.596  1.2920  0.3476  0.4491
 3721SOL     OW10981   4.594   3.416   2.471 -0.1483 -0.5843 -0.5636
 3721SOL    HW110982   4.644   3.496   2.501  0.7429 -1.5093  0.5054
 3721SOL    HW210983   4.658   3.342   2.450 -0.9407 -0.9836 -1.7163
 3722SOL     OW10984   0.062   1.177   2.342  0.2786  0.3045 -0.4100
 3722SOL    HW110985   0.016   1.217   2.262  1.8993  1.1339 -0.9680
 3722SOL    HW210986   0.040   1.080   2.347  0.3119  0.1869 -1.9993
 3723SOL     OW10987   4.118   3.617   1.502  0.1365  0.2149  0.3836
 3723SOL    HW110988   4.055   3.688   1.469  0.0289  0.0703  0.2750
 3723SOL    HW210989   4.150   3.641   1.593  0.0200  0.3525  0.3893
 3724SOL     OW10990   4.000   2.213   1.306  0.3289 -0.2263  0.2383
 3724SOL    HW110991   3.995   2.157   1.388  1.4950 -0.9655 -0.1677
 3724SOL    HW210992   3.908   2.240   1.278 -0.2706 -1.9248  0.4451
 3725SOL     OW10993   4.220   3.245   0.056  0.2864  0.2543  0.1998
 3725SOL    HW110994   4.244   3.273  -0.037  0.5114 -1.2924 -0.2416
 3725SOL    HW210995   4.149   3.175   0.052  0.6550 -0.1938  1.1623
 3726SOL     OW10996   0.324   2.051   0.901 -0.3510 -0.0786 -0.3755
 3726SOL    HW110997   0.240   2.090   0.865  0.7010  1.4678 -1.2893
 3726SOL    HW210998   0.375   2.122   0.951  0.0701 -1.1750  0.8019
 3727SOL     OW10999   0.190   1.856   4.846  0.4419  0.0418  0.4746
 3727SOL    HW111000   0.229   1.948   4.844  2.2469 -0.6421  1.7416
 3727SOL    HW211001   0.193   1.816   4.755  1.7563  0.4435  0.3158
 3728SOL     OW11002   0.494   4.081   3.888 -0.1422  0.2341  0.5129
 3728SOL    HW111003   0.514   4.171   3.850  0.7335  0.8341  2.2967
 3728SOL    HW211004   0.466   4.090   3.983 -0.4919 -1.3549  0.5973
 3729SOL     OW11005   3.417   1.891   1.836 -0.3071 -0.0871 -0.1643
 3729SOL    HW111006   3.494   1.829   1.840  0.8713  1.1831 -1.9508
 3729SOL    HW211007   3.429   1.963   1.904 -0.6814 -0.6775  0.5457
 3730SOL     OW11008   3.378   3.958   0.178 -0.3579  0.1642  0.5748
 3730SOL    HW111009   3.386   3.939   0.080  1.9096 -0.1690  0.7677
 3730SOL    HW211010   3.417   3.881   0.230  0.1261  1.1143  1.6664
 3731SOL     OW11011   0.296   2.032   1.466  0.0906  0.2638 -0.4336
 3731SOL    HW111012   0.312   2.103   1.397 -0.9963  1.8279  0.8460
 3731SOL    HW211013   0.254   1.952   1.422 -0.1196  1.0211 -1.6659
 3732SOL     OW11014   3.822   2.908   0.643  0.1577 -0.1910 -0.1516
 3732SOL    HW111015   3.914   2.871   0.651 -0.7265 -2.3989  0.5503
 3732SOL    HW211016   3.793   2.943   0.732  0.4257  0.8770 -0.4643
 3733SOL     OW11017   4.663   0.474   1.127  0.1693  0.1237 -0.5192
 3733SOL    HW111018   4.633   0.453   1.034 -0.0314 -0.5615 -0.3109
 3733SOL    HW211019   4.762   0.485   1.129  0.0635  1.2170 -1.0035
 3734SOL     OW11020   4.806   2.607   0.461 -0.7913  0.6019 -0.5576
 3734SOL    HW111021   4.889   2.550   0.461  0.1839  1.9663  0.1055
 3734SOL    HW211022   4.829   2.699   0.430 -1.1020  2.2224  3.4209
 3735SOL     OW11023   0.434   3.002   1.432  0.3911  0.2380 -0.3344
 3735SOL    HW111024   0.343   3.025   1.466  0.7896  0.0284  0.9481
 3735SOL    HW211025   0.462   3.069   1.363 -0.8792  0.0722 -1.0472
 3736SOL     OW11026   3.800   3.986   0.206  0.0271 -0.1797 -0.0947
 3736SOL    HW111027   3.819   4.081   0.183  0.9440  0.0643  1.4846
 3736SOL    HW211028   3.838   3.926   0.136 -0.3748  0.5996 -0.9979
 3737SOL     OW11029   4.306   2.908   0.771 -0.0777  0.1263 -0.0420
 3737SOL    HW111030   4.219   2.912   0.820  0.4536 -1.8984  1.2004
 3737SOL    HW211031   4.381   2.894   0.836  1.2179  1.8089 -1.0852
 3738SOL     OW11032   0.224   1.095   0.401  0.1731  0.0793  0.6622
 3738SOL    HW111033   0.323   1.109   0.410  0.3932  0.6759 -1.8528
 3738SOL    HW211034   0.177   1.181   0.419  0.1457 -0.0525  1.2454
 3739SOL     OW11035   3.143   2.741   1.384 -0.1819  0.3697  0.0624
 3739SOL    HW111036   3.064   2.764   1.328 -0.4048 -0.2047  0.1381
 3739SOL    HW211037   3.155   2.811   1.455 -1.6247 -0.3903  1.1020
 3740SOL     OW11038   4.178   0.713   1.064  0.4128 -0.0505 -0.1855
 3740SOL    HW111039   4.159   0.617   1.087  2.1978 -0.5600 -0.6294
 3740SOL    HW211040   4.277   0.726   1.060  0.1849  1.4768 -1.5332
 3741SOL     OW11041   0.017   3.928   0.697  0.0012  0.0536 -0.1611
 3741SOL    HW111042   0.027   4.025   0.675 -0.3316  0.0921 -0.1524
 3741SOL    HW211043  -0.076   3.911   0.728  0.3483 -0.0741  0.8335
 3742SOL     OW11044   4.758   3.518   4.673  0.0246 -0.0126  0.1616
 3742SOL    HW111045   4.712   3.573   4.603  0.3255 -0.6702 -0.5664
 3742SOL    HW211046   4.855   3.510   4.652 -0.3172 -2.4749 -0.9160
 3743SOL     OW11047   4.289   3.380   4.868  0.1327  0.3783  0.2423
 3743SOL    HW111048   4.314   3.471   4.901  1.6750  0.1926 -0.2883
 3743SOL    HW211049   4.360   3.348   4.805 -1.8605  0.0351 -1.9463
 3744SOL     OW11050   3.553   2.744   1.029 -0.0701  0.5105  0.8360
 3744SOL    HW111051   3.491   2.730   0.952  1.5928 -2.0853 -0.1714
 3744SOL    HW211052   3.505   2.722   1.114 -1.0900  0.4730  0.2700
 3745SOL     OW11053   4.584   4.205   1.939  0.0032 -0.0629  0.4457
 3745SOL    HW111054   4.619   4.273   2.005 -1.0260  2.4382 -1.4303
 3745SOL    HW211055   4.559   4.251   1.854 -0.7874 -2.8694 -0.9585
 3746SOL     OW11056   3.690   1.954   0.580  0.3134 -0.1770 -0.1252
 3746SOL    HW111057   3.660   1.859   0.571  1.6043 -0.6538  0.3437
 3746SOL    HW211058   3.790   1.958   0.572  0.1358  1.4665 -2.7701
 3747SOL     OW11059   3.021   3.254   2.658 -0.5439  0.2611 -0.2256
 3747SOL    HW111060   2.963   3.334   2.640  0.1573  0.8167 -0.0757
 3747SOL    HW211061   2.965   3.179   2.693 -1.6803 -0.2672 -2.9420
 3748SOL     OW11062   4.957   2.950   0.115 -0.3268  0.2266 -0.0039
 3748SOL    HW111063   5.008   2.870   0.086  1.0170  0.6136  1.1739
 3748SOL    HW211064   5.012   3.032   0.102 -0.3514  0.5965  1.8593
 3749SOL     OW11065   0.548   3.869   1.667  0.0070  0.3227 -0.0089
 3749SOL    HW111066   0.535   3.808   1.745  1.4152 -2.3246 -1.6940
 3749SOL    HW211067   0.487   3.840   1.592  0.6394  1.0642 -0.8309
 3750SOL     OW11068   2.562   1.947   0.273  0.0327 -0.1742 -0.3100
 3750SOL    HW111069   2.512   1.860   0.269  0.5883 -0.4711 -0.8899
 3750SOL    HW211070   2.574   1.974   0.369 -2.1702  0.4561 -0.1532
 3751SOL     OW11071   0.850   1.763   0.934  0.1311  0.4964 -0.0047
 3751SOL    HW111072   0.780   1.789   0.868  2.1858  1.3844 -1.9107
 3751SOL    HW211073   0.887   1.844   0.978  1.3674  0.2336 -0.5197
 3752SOL     OW11074   3.707   2.917   2.208 -0.7998 -0.2397 -0.2030
 3752SOL    HW111075   3.775   2.915   2.135 -0.8954 -1.4444 -0.2901
 3752SOL    HW211076   3.664   2.826   2.216 -2.8904  0.6415 -0.6091
 3753SOL     OW11077   4.966   1.914   0.874 -0.0672  0.1124 -0.1949
 3753SOL    HW111078   5.025   1.922   0.793 -0.6218 -1.0143 -0.7322
 3753SOL    HW211079   5.005   1.847   0.937 -0.8731 -0.8138 -0.6622
 3754SOL     OW11080   2.030   0.747   1.155 -0.6482 -0.2199  0.5783
 3754SOL    HW111081   2.066   0.759   1.062 -0.3088 -0.1464  0.7194
 3754SOL    HW211082   1.937   0.783   1.159 -0.2027  0.9810  0.6012
 3755SOL     OW11083   1.840   0.073   0.433  0.2774  0.0125 -0.2567
 3755SOL    HW111084   1.841   0.162   0.477 -1.2159  0.1376 -0.4173
 3755SOL    HW211085   1.755   0.025   0.456  0.6548 -1.0013 -0.8856
 3756SOL     OW11086   0.412   1.631   0.154  0.1905  0.5222 -0.1975
 3756SOL    HW111087   0.503   1.635   0.112 -0.6493  0.3693 -2.1736
 3756SOL    HW211088   0.381   1.536   0.155  0.0177  0.5859  0.3914
 3757SOL     OW11089   0.743   2.753   2.827 -0.0611  0.1330 -0.1848
 3757SOL    HW111090   0.710   2.815   2.899 -2.1868 -1.4108  0.2694
 3757SOL    HW211091   0.682   2.758   2.748  0.6703 -0.2126 -0.7787
 3758SOL     OW11092   4.011   2.529   4.857 -0.1161  0.1470 -0.6617
 3758SOL    HW111093   3.977   2.486   4.773 -1.1008  0.5070 -0.4553
 3758SOL    HW211094   3.945   2.595   4.891  0.7395  0.7782 -0.1632
 3759SOL     OW11095   4.353   0.067   1.138 -0.3076 -0.3161  0.5850
 3759SOL    HW111096   4.391  -0.006   1.195 -0.7443 -0.1230  1.1311
 3759SOL    HW211097   4.381   0.156   1.174  0.1680 -0.2053 -0.0414
 3760SOL     OW11098   3.543   2.268   1.012 -0.0597  0.1153 -0.0184
 3760SOL    HW111099   3.448   2.264   1.044 -0.2239 -0.2006 -0.5338
 3760SOL    HW211100   3.554   2.344   0.949  0.6747  1.8313  2.0569
 3761SOL     OW11101   4.123   3.435   4.510  0.5044  0.3385  0.0618
 3761SOL    HW111102   4.104   3.405   4.604  0.5724 -0.6997 -0.2445
 3761SOL    HW211103   4.210   3.484   4.508 -0.0985  1.4770  0.7527
 3762SOL     OW11104   4.403   1.753   1.739  0.2034 -0.5161  0.3583
 3762SOL    HW111105   4.486   1.808   1.735 -0.5831  0.7660  0.9496
 3762SOL    HW211106   4.331   1.798   1.685 -0.2892 -1.2661  0.3836
 3763SOL     OW11107   3.202   2.910   1.579  0.8108 -0.7856  0.2982
 3763SOL    HW111108   3.154   2.881   1.662 -0.6310 -1.3526 -0.7140
 3763SOL    HW211109   3.210   3.010   1.579 -1.5928 -0.5500 -0.1446
 3764SOL     OW11110   4.952   0.975   2.720 -0.4499  0.9802  0.0606
 3764SOL    HW111111   4.979   0.889   2.764 -0.2522  0.2467 -1.4171
 3764SOL    HW211112   5.031   1.016   2.676 -0.9024  0.9214 -0.8449
 3765SOL     OW11113   1.254   2.309   2.293 -0.3670  0.3707  0.2799
 3765SOL    HW111114   1.318   2.375   2.254 -0.3374  0.8426  1.1060
 3765SOL    HW211115   1.290   2.217   2.280 -0.9414  0.4143 -1.8802
 3766SOL     OW11116   4.373   3.415   3.516  0.2168  0.0763 -0.0036
 3766SOL    HW111117   4.297   3.364   3.476  0.9968  0.5511 -2.2068
 3766SOL    HW211118   4.400   3.371   3.602 -1.6474 -0.8744  0.1562
 3767SOL     OW11119   0.029   3.944   1.149  0.3198 -0.0484  0.0892
 3767SOL    HW111120   0.106   3.900   1.196  1.8262  2.0677 -0.2008
 3767SOL    HW211121   0.005   3.891   1.067  0.5991 -1.4262  0.8718
 3768SOL     OW11122   1.852   3.434   0.691 -0.4092 -0.8407  0.2696
 3768SOL    HW111123   1.754   3.454   0.693 -0.2210  0.0985  0.6081
 3768SOL    HW211124   1.877   3.382   0.772 -0.7592 -1.7541 -0.1984
 3769SOL     OW11125   4.194   4.791   4.504 -0.4502 -0.5335 -0.0434
 3769SOL    HW111126   4.256   4.779   4.582  0.2354  2.0700 -0.0808
 3769SOL    HW211127   4.210   4.881   4.463 -0.1305 -2.1134 -3.7888
 3770SOL     OW11128   4.267   1.771   3.901 -0.0441 -0.2113 -0.2898
 3770SOL    HW111129   4.219   1.854   3.926 -1.6828 -0.7529 -1.4762
 3770SOL    HW211130   4.353   1.765   3.952  0.4933  2.5659 -0.7071
 3771SOL     OW11131   3.012   2.418   0.515  0.2770 -0.4479 -0.1806
 3771SOL    HW111132   3.101   2.432   0.471  0.1252 -1.1012 -0.7061
 3771SOL    HW211133   2.943   2.472   0.468  0.3583 -0.0624  0.1315
 3772SOL     OW11134   3.986   2.614   3.832 -0.2956 -0.0886  0.0927
 3772SOL    HW111135   4.065   2.663   3.794  0.4872 -1.2175  0.2311
 3772SOL    HW211136   3.925   2.587   3.757  0.8322 -1.5819 -0.3329
 3773SOL     OW11137   1.957   3.554   1.417  0.0273 -0.2384  0.2722
 3773SOL    HW111138   1.898   3.480   1.449 -1.7888  1.0141 -0.0476
 3773SOL    HW211139   2.036   3.515   1.370 -1.3114 -1.9868 -0.6589
 3774SOL     OW11140   4.913   1.901   1.984 -0.5431  0.3973  0.7099
 3774SOL    HW111141   4.906   1.941   2.076  0.4090 -1.7068  1.7723
 3774SOL    HW211142   4.834   1.841   1.968 -0.7019  0.7517  0.1461
 3775SOL     OW11143   4.009   3.532   4.290  0.1071 -0.0383  0.1527
 3775SOL    HW111144   4.043   3.505   4.380 -0.4714 -2.3377 -0.2465
 3775SOL    HW211145   4.075   3.505   4.220 -1.0236 -1.5864 -0.3657
 3776SOL     OW11146   3.745   3.026   2.450  0.4053 -0.3489  0.1072
 3776SOL    HW111147   3.749   2.982   2.360 -1.2352 -0.5399  0.0868
 3776SOL    HW211148   3.733   2.956   2.521 -1.1023 -0.0648  0.1786
 3777SOL     OW11149   2.640   2.627   0.717 -0.1516 -0.4917  0.2263
 3777SOL    HW111150   2.680   2.610   0.626  0.1243  0.5477  0.1453
 3777SOL    HW211151   2.694   2.579   0.786 -0.2638 -1.1523 -0.1382
 3778SOL     OW11152   4.473   2.362   1.908 -0.5438 -0.2701  0.6434
 3778SOL    HW111153   4.527   2.295   1.858 -0.7678  1.8563 -2.7379
 3778SOL    HW211154   4.527   2.400   1.983  1.5233 -0.4715 -0.6787
 3779SOL     OW11155   3.658   3.958   0.868 -0.2655 -0.9291  0.3269
 3779SOL    HW111156   3.702   3.869   0.882  0.8794 -0.1758  1.8262
 3779SOL    HW211157   3.728   4.028   0.856 -1.1160 -0.0253  0.5116
 3780SOL     OW11158   3.716   2.234   1.209  0.4102  0.3641  0.2619
 3780SOL    HW111159   3.649   2.250   1.138  0.2400  0.9727  0.5503
 3780SOL    HW211160   3.751   2.140   1.202 -1.0745 -0.2446  0.6271
 3781SOL     OW11161   0.781   2.930   3.068 -0.6091 -0.0530 -0.1386
 3781SOL    HW111162   0.731   3.009   3.032 -1.8705 -0.2775  1.0385
 3781SOL    HW211163   0.805   2.946   3.164  0.4165 -0.5091 -0.3096
 3782SOL     OW11164   3.960   1.942   1.141 -0.5611 -0.2591  0.3382
 3782SOL    HW111165   4.033   1.952   1.209 -1.9362  2.1627  1.5962
 3782SOL    HW211166   3.968   2.015   1.073 -0.2290 -1.6451 -1.1850
 3783SOL     OW11167   3.583   4.054   4.857 -0.4437  0.0642  0.0257
 3783SOL    HW111168   3.594   4.033   4.760 -0.3837 -1.6987  0.3901
 3783SOL    HW211169   3.668   4.033   4.906 -0.9941 -0.6295  0.7073
 3784SOL     OW11170   0.363   3.602   2.812 -0.1965 -0.8244  0.7144
 3784SOL    HW111171   0.412   3.672   2.759  2.3289 -2.3252  0.9147
 3784SOL    HW211172   0.429   3.546   2.862 -2.3663 -0.4896  4.2964
 3785SOL     OW11173   2.706   1.034   0.843  0.4507  0.5659 -0.7283
 3785SOL    HW111174   2.664   0.997   0.760  1.0480  1.0583 -1.2640
 3785SOL    HW211175   2.651   1.009   0.922 -0.9503  1.3542 -1.4226
 3786SOL     OW11176   3.969   3.418   0.851  0.2505  0.6410 -0.2060
 3786SOL    HW111177   3.948   3.360   0.772 -1.0301  0.5445  0.1723
 3786SOL    HW211178   3.893   3.482   0.866  0.1179  0.1561  1.3688
 3787SOL     OW11179   3.479   2.681   0.399  0.7008  0.0143  0.1985
 3787SOL    HW111180   3.513   2.692   0.305  0.0790  1.0342  0.0790
 3787SOL    HW211181   3.556   2.681   0.462  1.0331  1.0112 -0.1803
 3788SOL     OW11182   3.147   1.375   3.303 -0.2173  0.5360 -0.0075
 3788SOL    HW111183   3.218   1.350   3.369  0.2004  2.0328  0.1424
 3788SOL    HW211184   3.139   1.304   3.233  1.7245  0.5287 -0.2554
 3789SOL     OW11185   2.213   3.163   2.461 -0.1012 -0.2872 -0.7763
 3789SOL    HW111186   2.153   3.199   2.533 -0.8915  1.0849 -2.0791
 3789SOL    HW211187   2.288   3.226   2.446  1.8877 -2.0545  0.9360
 3790SOL     OW11188   0.815   2.824   3.509  0.1350  0.3209  0.2088
 3790SOL    HW111189   0.722   2.855   3.487  0.2648  0.9617  0.5205
 3790SOL    HW211190   0.853   2.774   3.432 -0.0784  0.9707 -0.3249
 3791SOL     OW11191   4.006   4.608   4.474  0.1182  0.1001  1.1568
 3791SOL    HW111192   4.086   4.667   4.484  0.6005 -0.4403  0.5990
 3791SOL    HW211193   4.017   4.526   4.530  0.2363 -0.2620  0.6086
 3792SOL     OW11194   1.625   3.259   4.773  0.1521 -0.7650  0.0248
 3792SOL    HW111195   1.565   3.339   4.782 -0.1710 -0.8876 -0.9280
 3792SOL    HW211196   1.713   3.287   4.737 -0.2786 -0.9398 -1.2262
 3793SOL     OW11197   5.029   3.520   2.829 -0.1340  0.7281 -0.2160
 3793SOL    HW111198   5.096   3.526   2.754 -1.0299 -0.2599 -1.1295
 3793SOL    HW211199   5.047   3.438   2.882 -1.0188  0.1025 -0.8715
 3794SOL     OW11200   4.261   4.587   3.628  0.1155 -0.1355  0.0680
 3794SOL    HW111201   4.214   4.527   3.693  0.4461  1.1082  1.5099
 3794SOL    HW211202   4.359   4.568   3.630  0.0770 -0.3859 -0.3884
 3795SOL     OW11203   3.295   3.028   4.335  0.2142 -0.1286  0.2583
 3795SOL    HW111204   3.292   2.929   4.346  0.5401 -0.2441 -0.6389
 3795SOL    HW211205   3.355   3.068   4.405  0.6507 -0.6333  0.1723
 3796SOL     OW11206   0.135   2.376   3.381  0.0527  0.0641 -0.2898
 3796SOL    HW111207   0.080   2.385   3.464  3.4948  1.1860  2.0598
 3796SOL    HW211208   0.141   2.279   3.355 -0.4134 -0.3948  1.2380
 3797SOL     OW11209   2.224   4.725   2.232  0.0001  0.2392 -0.2258
 3797SOL    HW111210   2.222   4.731   2.332  1.4515  1.6557 -0.2254
 3797SOL    HW211211   2.312   4.688   2.203 -0.9532 -1.5471 -0.9806
 3798SOL     OW11212   3.992   0.284   4.313  0.5613  0.3964  0.1913
 3798SOL    HW111213   3.930   0.206   4.320  1.1199 -0.2069 -1.1716
 3798SOL    HW211214   4.001   0.310   4.216 -0.4885  2.8838  0.6869
 3799SOL     OW11215   2.946   3.189   4.928  0.6827  0.3582  0.4969
 3799SOL    HW111216   3.016   3.121   4.903  0.7333  1.0723 -1.4688
 3799SOL    HW211217   2.990   3.277   4.945  0.4997  0.1942  1.9071
 3800SOL     OW11218   3.827   2.686   2.848 -0.3503 -1.1336 -0.2653
 3800SOL    HW111219   3.743   2.710   2.799 -0.4311 -0.3402  0.2369
 3800SOL    HW211220   3.878   2.770   2.868 -0.2854 -1.4465  0.9418
 3801SOL     OW11221   3.241   3.701   2.712  0.6165  0.2991  0.2075
 3801SOL    HW111222   3.293   3.739   2.788  1.6972 -0.7726  0.0238
 3801SOL    HW211223   3.250   3.602   2.710  2.1157  0.3785 -2.3280
 3802SOL     OW11224   4.253   1.201   2.242 -0.0637 -0.9765 -0.3386
 3802SOL    HW111225   4.346   1.227   2.214  0.3217 -1.5395  0.3874
 3802SOL    HW211226   4.190   1.276   2.221  0.4391 -0.8177 -1.3916
 3803SOL     OW11227   4.253   1.994   0.483 -0.1192 -0.2093  0.1751
 3803SOL    HW111228   4.219   1.997   0.388  2.9118 -0.5657 -1.0168
 3803SOL    HW211229   4.268   1.899   0.510  0.7923 -0.0255  0.3229
 3804SOL     OW11230   2.532   2.016   3.087  0.4334  0.8747 -0.4375
 3804SOL    HW111231   2.454   2.031   3.148  0.3797  2.6442 -0.8863
 3804SOL    HW211232   2.617   2.032   3.137  0.4880 -0.0770 -0.2095
 3805SOL     OW11233   3.738   4.017   2.759 -0.8244  0.1869 -0.0224
 3805SOL    HW111234   3.750   3.972   2.670 -2.2599 -0.3745  0.0246
 3805SOL    HW211235   3.644   4.052   2.765 -0.4884  0.9563  0.9584
 3806SOL     OW11236   1.898   4.519   4.210 -0.1244  0.3698 -0.1945
 3806SOL    HW111237   1.940   4.607   4.190 -0.6092  0.6796  0.1078
 3806SOL    HW211238   1.902   4.460   4.130 -1.1488  1.2207 -0.9066
 3807SOL     OW11239   3.583   2.926   2.956  0.1781  0.3681 -0.0319
 3807SOL    HW111240   3.560   2.835   2.921 -1.4961  1.0137 -0.6986
 3807SOL    HW211241   3.665   2.960   2.910  1.5672 -1.2580  1.0904
 3808SOL     OW11242   2.952   3.048   3.696  0.0355  0.0311 -0.1890
 3808SOL    HW111243   2.938   2.963   3.748  1.4244 -0.8419 -1.1844
 3808SOL    HW211244   3.026   3.101   3.737 -0.7774  0.7517  0.3833
 3809SOL     OW11245   3.801   4.518   3.411  0.2959 -0.3513 -0.6532
 3809SOL    HW111246   3.843   4.594   3.460 -0.1916 -2.7896  4.1813
 3809SOL    HW211247   3.873   4.458   3.375  0.7852 -0.1204 -0.0786
 3810SOL     OW11248   4.424   3.952   2.447  0.4120 -0.5534  0.2880
 3810SOL    HW111249   4.387   4.002   2.526  0.2594 -1.7423  0.9915
 3810SOL    HW211250   4.485   3.880   2.479  1.4442 -0.1776 -0.7644
 3811SOL     OW11251   3.569   3.220   2.391  0.5750 -0.1008  0.0093
 3811SOL    HW111252   3.614   3.244   2.305 -1.0110 -0.1048 -0.8610
 3811SOL    HW211253   3.621   3.148   2.437  1.1360 -0.5254 -1.2477
 3812SOL     OW11254   4.589   1.967   3.701 -0.2197  0.2020  0.2967
 3812SOL    HW111255   4.643   1.938   3.780 -0.9549  0.5434  0.9282
 3812SOL    HW211256   4.651   1.983   3.623  0.4684 -0.4963  0.6857
 3813SOL     OW11257   3.958   2.103   2.755  0.3173 -0.5571 -0.2563
 3813SOL    HW111258   4.049   2.124   2.790  0.4066 -0.5492 -0.4954
 3813SOL    HW211259   3.955   2.118   2.657  0.5121 -2.0781 -0.5220
 3814SOL     OW11260   4.682   4.577   3.713  0.1206  0.2309  0.2699
 3814SOL    HW111261   4.620   4.557   3.637  1.2691  1.3128 -0.9859
 3814SOL    HW211262   4.654   4.663   3.756 -1.0227 -0.7742  1.6629
 3815SOL     OW11263   4.736   3.990   1.977 -0.6872  0.1939  0.0292
 3815SOL    HW111264   4.689   4.064   1.928  0.1346 -0.4427 -1.8332
 3815SOL    HW211265   4.668   3.930   2.020 -1.5188  0.3530 -1.0195
 3816SOL     OW11266   3.613   4.496   4.250 -0.5411  0.2161 -0.2390
 3816SOL    HW111267   3.684   4.524   4.185 -1.3113  1.6441 -0.5145
 3816SOL    HW211268   3.573   4.410   4.220 -1.2604  1.1174 -2.0018
 3817SOL     OW11269   3.838   3.114   3.223  0.0831  0.6799  0.2928
 3817SOL    HW111270   3.782   3.039   3.258 -0.2678  1.5243  1.6397
 3817SOL    HW211271   3.779   3.184   3.184  0.2120  1.2724  1.1207
 3818SOL     OW11272   4.492   3.168   1.846  0.7323 -0.2539 -0.3397
 3818SOL    HW111273   4.546   3.084   1.848 -2.6809 -2.6303  0.8951
 3818SOL    HW211274   4.440   3.172   1.761 -1.2916 -1.0040  0.7944
 3819SOL     OW11275   1.993   2.722   3.262  0.5347  0.2433 -0.1701
 3819SOL    HW111276   2.004   2.819   3.243  0.9756  0.3183  0.4403
 3819SOL    HW211277   2.036   2.700   3.350  1.4990 -0.7383 -0.8620
 3820SOL     OW11278   0.586   4.091   2.019  0.4820  0.1386  0.2584
 3820SOL    HW111279   0.651   4.166   2.011  0.9190 -0.1951  0.6157
 3820SOL    HW211280   0.558   4.081   2.115 -1.2040  1.2000 -0.0800
 3821SOL     OW11281   4.107   2.977   2.635 -0.0125 -0.5400  0.6528
 3821SOL    HW111282   4.200   3.009   2.613  0.1056 -0.3400  1.4226
 3821SOL    HW211283   4.067   3.037   2.704 -1.4235  0.4984 -0.9749
 3822SOL     OW11284   3.665   2.554   3.833  0.2022 -0.4046 -0.2291
 3822SOL    HW111285   3.705   2.569   3.924 -0.5544 -0.1496  0.0614
 3822SOL    HW211286   3.687   2.631   3.774 -0.6143  0.1717  0.2003
 3823SOL     OW11287   1.986   2.552   1.311  0.4631 -1.0365  0.1139
 3823SOL    HW111288   1.901   2.596   1.341  0.1256 -0.8525 -1.0460
 3823SOL    HW211289   1.995   2.463   1.355  0.0510 -0.7337  0.8214
 3824SOL     OW11290   3.638   3.414   2.692 -0.8604  0.3715  0.2056
 3824SOL    HW111291   3.585   3.477   2.635 -0.5470  1.4103  1.0194
 3824SOL    HW211292   3.706   3.367   2.636 -1.2258  0.6184 -0.4565
 3825SOL     OW11293   3.903   1.713   1.445  0.5667  0.2162 -0.1351
 3825SOL    HW111294   3.915   1.648   1.519  0.7501 -0.6111 -0.8723
 3825SOL    HW211295   3.975   1.783   1.450 -0.3886  1.1349  1.4157
 3826SOL     OW11296   4.844   3.682   1.865 -0.3295 -0.1527  0.0806
 3826SOL    HW111297   4.891   3.659   1.780  0.1176  0.2698  0.2071
 3826SOL    HW211298   4.908   3.728   1.927 -0.2083 -1.7897  1.2561
 3827SOL     OW11299   3.925   3.261   1.555  0.0940  0.2090  0.2295
 3827SOL    HW111300   3.939   3.169   1.519  2.7423  0.1277  1.2767
 3827SOL    HW211301   3.922   3.326   1.479 -1.3459 -0.6557 -0.4921
 3828SOL     OW11302   4.639   1.213   1.926  0.2965  0.5653  0.3446
 3828SOL    HW111303   4.570   1.158   1.879  1.3304 -1.9474  1.5365
 3828SOL    HW211304   4.689   1.268   1.859  0.9753 -2.0242 -1.4323
 3829SOL     OW11305   4.796   3.221   3.232 -0.4072  0.0521 -0.1778
 3829SOL    HW111306   4.880   3.238   3.284  1.0301 -3.4937 -1.0422
 3829SOL    HW211307   4.784   3.293   3.164  1.8787  0.7207  0.0310
 3830SOL     OW11308   3.456   3.311   3.319 -0.2130  0.8219  0.0004
 3830SOL    HW111309   3.506   3.287   3.236 -0.5794  1.7774 -0.5164
 3830SOL    HW211310   3.394   3.236   3.344  1.3119 -0.3080  0.5549
 3831SOL     OW11311   0.619   2.084   1.744  0.3821  0.3395  0.3471
 3831SOL    HW111312   0.658   2.017   1.807  0.3969 -0.9560 -0.9901
 3831SOL    HW211313   0.651   2.176   1.770  2.9732 -0.4709  0.3384
 3832SOL     OW11314   0.460   2.543   2.679 -0.0588  0.1577  0.1507
 3832SOL    HW111315   0.540   2.483   2.672  0.1236  0.3749  0.3712
 3832SOL    HW211316   0.452   2.577   2.773 -0.0595  0.6236 -0.0193
 3833SOL     OW11317   2.883   3.020   2.767 -0.6773 -0.1900 -0.0364
 3833SOL    HW111318   2.914   3.089   2.833 -0.0291 -0.5027 -0.0052
 3833SOL    HW211319   2.938   2.937   2.777 -1.2954 -0.6299 -0.2372
 3834SOL     OW11320   0.225   2.510   0.919 -0.3890 -0.4578  0.3224
 3834SOL    HW111321   0.212   2.464   1.006  0.7045 -0.1830  0.6531
 3834SOL    HW211322   0.228   2.609   0.933  0.1281 -0.4254  0.0380
 3835SOL     OW11323   3.816   2.311   3.282  0.0188  0.0345  0.4477
 3835SOL    HW111324   3.811   2.291   3.380  0.1719 -1.3101  0.2010
 3835SOL    HW211325   3.724   2.328   3.247 -0.0314  0.5583  0.8310
 3836SOL     OW11326   3.856   3.257   2.565 -0.3748  0.0671 -0.0795
 3836SOL    HW111327   3.784   3.188   2.558  0.3567 -0.6136 -1.1191
 3836SOL    HW211328   3.840   3.328   2.497 -0.3748  0.2184  0.0774
 3837SOL     OW11329   4.358   1.479   2.964  0.2802  0.3767  0.2419
 3837SOL    HW111330   4.375   1.523   2.876 -1.0109  1.3612  0.4466
 3837SOL    HW211331   4.274   1.426   2.959  0.8107 -0.5019  0.5635
 3838SOL     OW11332   3.697   1.675   2.297  0.2509 -0.0954 -0.2126
 3838SOL    HW111333   3.679   1.765   2.257  1.7387 -0.2547 -1.3259
 3838SOL    HW211334   3.764   1.685   2.371 -2.2450  0.1537  2.2146
 3839SOL     OW11335   3.291   3.574   0.047  0.6256  0.1425  0.1735
 3839SOL    HW111336   3.311   3.595  -0.048  0.9325  0.2905  0.2681
 3839SOL    HW211337   3.213   3.629   0.078  0.9224  0.5635  0.1876
 3840SOL     OW11338   3.267   3.707   4.251 -0.1009  0.0359 -0.2129
 3840SOL    HW111339   3.210   3.711   4.334  0.8436 -1.5032  0.5443
 3840SOL    HW211340   3.346   3.767   4.263  0.4602 -0.8005  0.3560
 3841SOL     OW11341   4.666   4.255   2.336  0.5039  0.3027  0.0459
 3841SOL    HW111342   4.652   4.198   2.417  0.4989 -0.2250 -0.3141
 3841SOL    HW211343   4.613   4.339   2.345  0.7865  0.4087  0.7428
 3842SOL     OW11344   4.357   3.119   2.626  0.4221  0.7454 -0.8344
 3842SOL    HW111345   4.358   3.130   2.725 -1.1240  0.8415 -0.8026
 3842SOL    HW211346   4.442   3.078   2.596  0.6138  0.0264  0.6234
 3843SOL     OW11347   4.381   2.887   1.763  0.0542 -0.4746  0.0308
 3843SOL    HW111348   4.458   2.870   1.825  0.3557  0.4313 -0.0762
 3843SOL    HW211349   4.401   2.848   1.673  0.7823  0.4756 -0.2434
 3844SOL     OW11350   3.617   3.449   4.881 -0.4749 -0.5737 -0.0040
 3844SOL    HW111351   3.651   3.383   4.948 -1.9332 -1.0232  0.3102
 3844SOL    HW211352   3.572   3.524   4.928 -2.1713 -1.2579 -0.4791
 3845SOL     OW11353   3.678   3.340   0.094 -0.4289 -0.4066  0.1691
 3845SOL    HW111354   3.591   3.310   0.134 -0.2504 -0.2945  0.6495
 3845SOL    HW211355   3.719   3.265   0.042 -1.0234 -0.3279 -0.4358
 3846SOL     OW11356   1.148   2.174   1.030 -0.4451  0.3786 -0.0726
 3846SOL    HW111357   1.113   2.215   0.946 -0.9893  0.6945  0.2974
 3846SOL    HW211358   1.146   2.242   1.104 -1.1759 -0.2411  0.5044
 3847SOL     OW11359   3.116   2.155   2.560 -0.4590 -0.1094  0.3310
 3847SOL    HW111360   3.138   2.063   2.591  1.6891  0.1197 -0.3814
 3847SOL    HW211361   3.058   2.200   2.629 -1.3293 -1.8579  0.8094
 3848SOL     OW11362   3.972   3.591   3.185  0.7688  0.1408 -0.7219
 3848SOL    HW111363   3.987   3.507   3.133  1.0697  0.2452 -0.8068
 3848SOL    HW211364   3.887   3.583   3.237  0.8241 -0.2386 -0.6855
 3849SOL     OW11365   0.447   3.933   2.662  0.2634  0.0986  0.0509
 3849SOL    HW111366   0.508   4.004   2.627  1.5049 -1.3821 -0.9351
 3849SOL    HW211367   0.466   3.847   2.615  0.2359 -1.4116  2.6195
 3850SOL     OW11368   3.651   3.003   1.887 -0.3570 -0.2190  0.8168
 3850SOL    HW111369   3.747   2.977   1.896 -0.2225 -0.0125  0.0412
 3850SOL    HW211370   3.615   2.967   1.801 -0.4416  1.2924  0.1851
 3851SOL     OW11371   1.344   0.235   1.382  0.3017 -0.1612  0.1156
 3851SOL    HW111372   1.379   0.146   1.410  2.2337  0.5153 -0.0132
 3851SOL    HW211373   1.369   0.304   1.449 -1.9582  0.1953  0.6773
 3852SOL     OW11374   0.435   2.903   3.005 -0.4332  0.1852  0.1105
 3852SOL    HW111375   0.454   2.806   2.986 -0.8704  0.2193 -0.5209
 3852SOL    HW211376   0.416   2.950   2.919 -0.0176  0.8822  0.3963
 3853SOL     OW11377   0.459   2.631   2.975 -0.4988  0.1283  0.6084
 3853SOL    HW111378   0.391   2.587   3.034 -0.8093  1.2899  1.1433
 3853SOL    HW211379   0.550   2.601   3.002 -0.7833 -2.0137 -0.5887
 3854SOL     OW11380   3.935   2.681   4.362  0.0816 -0.1413 -0.1447
 3854SOL    HW111381   3.964   2.767   4.320 -0.1600 -0.1808 -0.3883
 3854SOL    HW211382   4.010   2.645   4.418  1.2352 -1.2027 -2.2580
 3855SOL     OW11383   4.014   2.057   1.546 -0.0802 -0.4865  0.1635
 3855SOL    HW111384   3.948   1.998   1.594 -1.3426 -0.0758 -1.0192
 3855SOL    HW211385   4.065   2.110   1.613  0.5985 -2.3838  1.2327
 3856SOL     OW11386   4.212   2.161   2.804 -0.0419  0.1573  0.1335
 3856SOL    HW111387   4.228   2.121   2.894  1.7749  2.2871  0.8751
 3856SOL    HW211388   4.264   2.247   2.797 -2.4433  1.5792 -1.8734
 3857SOL     OW11389   3.677   1.827   3.073  0.3034 -0.6786  0.6305
 3857SOL    HW111390   3.745   1.836   3.000 -0.8355  1.0462 -0.2619
 3857SOL    HW211391   3.721   1.844   3.161  1.1092  0.0175  0.1050
 3858SOL     OW11392   3.473   4.446   2.825  0.0899 -0.2359  0.0139
 3858SOL    HW111393   3.481   4.478   2.731 -1.0084 -0.9893 -0.3527
 3858SOL    HW211394   3.478   4.346   2.827 -0.4520 -0.2613  0.6808
 3859SOL     OW11395   4.669   3.153   1.231  0.2139  0.0999 -0.3252
 3859SOL    HW111396   4.630   3.067   1.266 -0.5188  0.1272 -1.0332
 3859SOL    HW211397   4.623   3.230   1.273  1.4953  0.1795  0.9999
 3860SOL     OW11398   2.407   2.252   0.373 -0.1755  0.7238  0.4017
 3860SOL    HW111399   2.348   2.207   0.307  0.7632  0.6089 -0.3836
 3860SOL    HW211400   2.354   2.276   0.454 -1.1142 -0.0624  0.0417
 3861SOL     OW11401   4.567   3.393   1.599  0.1735  0.0698  0.0805
 3861SOL    HW111402   4.503   3.320   1.624  0.2646 -0.1080 -0.2024
 3861SOL    HW211403   4.516   3.471   1.563 -0.2731  1.5729  3.5707
 3862SOL     OW11404   4.999   3.632   2.490 -0.1023 -0.2983  0.2194
 3862SOL    HW111405   5.083   3.598   2.532  0.7819  0.4724 -0.8418
 3862SOL    HW211406   5.004   3.619   2.391 -0.4660  1.3374 -0.0397
 3863SOL     OW11407   4.037   3.883   4.390  0.6996  0.2009 -0.5746
 3863SOL    HW111408   4.056   3.831   4.307  1.6763  1.5580 -1.2418
 3863SOL    HW211409   4.113   3.875   4.454  0.4155  0.0120 -0.2556
 3864SOL     OW11410   4.481   2.045   2.979  0.4074 -0.0521 -0.0530
 3864SOL    HW111411   4.462   1.955   3.017  1.1052  0.0253  0.4845
 3864SOL    HW211412   4.560   2.040   2.917  1.0834  0.3748  0.7628
 3865SOL     OW11413   4.075   4.367   0.255  0.0601  0.1292  0.0200
 3865SOL    HW111414   4.171   4.342   0.239 -0.8472 -2.5897 -1.8504
 3865SOL    HW211415   4.056   4.360   0.353  1.4250 -0.7323  0.2580
 3866SOL     OW11416   4.266   2.589   2.121  0.1345  0.3424 -0.2202
 3866SOL    HW111417   4.209   2.631   2.050  0.3340 -2.2208 -2.0564
 3866SOL    HW211418   4.247   2.632   2.209 -3.3515  0.7923 -1.0351
 3867SOL     OW11419   0.169   3.088   1.517  0.1592  0.0776  0.5007
 3867SOL    HW111420   0.085   3.060   1.470  1.0710 -1.8468 -0.0885
 3867SOL    HW211421   0.151   3.096   1.615 -0.6683 -0.4705  0.4031
 3868SOL     OW11422   4.210   2.249   2.353 -0.0862  0.6208 -0.3004
 3868SOL    HW111423   4.298   2.204   2.344  0.5506  2.0448 -1.6561
 3868SOL    HW211424   4.186   2.295   2.267 -1.5242  1.3631  0.4455
 3869SOL     OW11425   3.396   1.902   2.337  0.5906  0.0784  0.7740
 3869SOL    HW111426   3.472   1.876   2.277  0.4728  1.4045  0.0247
 3869SOL    HW211427   3.416   1.989   2.381  1.0025 -1.2050  3.3060
 3870SOL     OW11428   4.565   4.298   2.664 -0.0867 -0.2200 -0.1764
 3870SOL    HW111429   4.483   4.253   2.627  0.5876  0.1455 -2.2777
 3870SOL    HW211430   4.646   4.246   2.636  0.6166  1.5034 -1.4625
 3871SOL     OW11431   4.488   3.844   2.998 -0.1401  0.0074 -0.4722
 3871SOL    HW111432   4.570   3.845   2.942  0.1041  0.1054 -0.1191
 3871SOL    HW211433   4.508   3.801   3.086 -0.4943 -0.0692 -0.4274
 3872SOL     OW11434   3.738   1.990   4.433  0.2343  0.7201 -0.8992
 3872SOL    HW111435   3.795   1.924   4.483 -0.2458  2.3581  2.0157
 3872SOL    HW211436   3.711   1.950   4.345 -0.5663 -3.2686  0.9313
 3873SOL     OW11437   0.324   2.620   3.681  0.3417  0.3578  0.6590
 3873SOL    HW111438   0.403   2.668   3.642 -0.5749 -0.4984 -2.5231
 3873SOL    HW211439   0.356   2.539   3.730  1.4752 -0.4882 -1.3448
 3874SOL     OW11440   4.278   2.119   1.260  0.2138  0.4177  0.2841
 3874SOL    HW111441   4.285   2.097   1.163 -1.7801 -1.4811  0.4921
 3874SOL    HW211442   4.193   2.168   1.278  0.4065  0.4673  1.1351
 3875SOL     OW11443   3.591   4.001   4.594  0.0989  0.0539  0.5000
 3875SOL    HW111444   3.596   4.076   4.528 -1.5238  0.0890  0.3842
 3875SOL    HW211445   3.634   3.920   4.555 -0.3723  0.2244 -0.3926
 3876SOL     OW11446   4.921   2.623   3.883  0.5985  0.5629  0.0923
 3876SOL    HW111447   4.949   2.551   3.946  1.2301 -1.3798 -2.2287
 3876SOL    HW211448   4.824   2.614   3.863  0.4590  0.9972  0.5748
 3877SOL     OW11449   4.483   1.901   2.156 -0.1695 -0.0897  0.2304
 3877SOL    HW111450   4.560   1.849   2.119 -1.5002 -0.8001 -1.6551
 3877SOL    HW211451   4.453   1.860   2.242  0.0444 -1.2334 -0.2312
 3878SOL     OW11452   1.426   3.870   3.433  0.0767  0.7185 -0.7726
 3878SOL    HW111453   1.504   3.810   3.452  0.2690  1.5254  1.1799
 3878SOL    HW211454   1.447   3.926   3.353 -0.4826 -2.3493 -3.2868
 3879SOL     OW11455   4.666   0.698   3.347 -0.0218  0.1632  0.2607
 3879SOL    HW111456   4.637   0.637   3.421  0.3244  2.1336  2.1376
 3879SOL    HW211457   4.757   0.671   3.315 -1.0732 -2.0810 -1.1230
 3880SOL     OW11458   2.259   2.997   1.835  0.3693 -0.3887 -0.6169
 3880SOL    HW111459   2.209   3.040   1.909  0.0961 -0.8612 -0.5198
 3880SOL    HW211460   2.336   2.945   1.872  0.8172  0.1739 -0.7493
 3881SOL     OW11461   3.918   1.291   4.247  0.1800 -0.5682  0.8012
 3881SOL    HW111462   3.922   1.241   4.161 -0.3066  0.4944  0.1306
 3881SOL    HW211463   3.843   1.255   4.303  1.2633 -2.0736  1.3389
 3882SOL     OW11464   3.818   1.278   3.022 -0.0194 -0.4627  0.2020
 3882SOL    HW111465   3.820   1.178   3.021 -0.6927 -0.5095  1.6310
 3882SOL    HW211466   3.809   1.310   3.116 -0.4232  0.9390 -0.2931
 3883SOL     OW11467   2.722   3.271   1.921 -0.5847 -0.3772 -0.0017
 3883SOL    HW111468   2.803   3.236   1.875  0.5206  2.1893 -0.1998
 3883SOL    HW211469   2.672   3.331   1.858 -1.8284 -0.7293  0.6097
 3884SOL     OW11470   3.363   0.080   1.173 -0.5470  0.5201  0.8724
 3884SOL    HW111471   3.414   0.164   1.153  1.1181 -0.7739 -0.6207
 3884SOL    HW211472   3.268   0.092   1.146  0.0764  1.3146 -1.1477
 3885SOL     OW11473   3.312   4.996   3.092  0.0951 -0.0622  0.1142
 3885SOL    HW111474   3.313   5.096   3.091  0.0863 -0.0538 -0.9550
 3885SOL    HW211475   3.393   4.962   3.043 -1.2908 -0.5171 -2.0148
 3886SOL     OW11476   4.717   1.728   1.900 -0.2802 -0.0081 -0.3907
 3886SOL    HW111477   4.677   1.708   1.990  0.2282 -0.0480 -0.1694
 3886SOL    HW211478   4.670   1.807   1.860  0.5769  1.0619  0.6488
 3887SOL     OW11479   3.344   2.235   3.970 -0.6720 -0.0662  0.0180
 3887SOL    HW111480   3.414   2.231   3.898 -1.4947  1.5140 -0.9259
 3887SOL    HW211481   3.354   2.321   4.021 -2.1062  0.3470 -0.3543
 3888SOL     OW11482   3.451   2.501   4.710 -0.0873 -0.8719 -0.2302
 3888SOL    HW111483   3.465   2.404   4.732  0.4345 -0.6688  0.3455
 3888SOL    HW211484   3.525   2.533   4.651  0.9469 -0.2713  1.3367
 3889SOL     OW11485   4.103   1.783   3.041  0.4922 -0.0669 -0.1931
 3889SOL    HW111486   4.177   1.722   3.069  0.8641 -0.3623 -1.7267
 3889SOL    HW211487   4.129   1.878   3.058 -0.2625 -0.2586  2.6184
 3890SOL     OW11488   4.895   4.096   4.979  0.1254  0.0250 -0.3520
 3890SOL    HW111489   4.991   4.071   4.970  0.1221  0.3634 -1.4971
 3890SOL    HW211490   4.844   4.018   5.017  0.7024 -0.4606 -0.5519
 3891SOL     OW11491   4.884   3.897   3.360  0.4442 -0.7360 -0.5105
 3891SOL    HW111492   4.961   3.836   3.376 -0.1457 -1.8448 -1.7125
 3891SOL    HW211493   4.807   3.845   3.322 -0.8142  0.3842  0.3941
 3892SOL     OW11494   3.835   2.403   4.660  0.1297 -0.7307  0.6289
 3892SOL    HW111495   3.914   2.344   4.641  0.4136 -0.3450  0.6011
 3892SOL    HW211496   3.751   2.348   4.656  0.0735 -0.5934 -2.4730
 3893SOL     OW11497   4.108   2.442   1.142  0.1453  0.0036 -0.3209
 3893SOL    HW111498   4.098   2.353   1.188  0.7290  0.5585  0.9432
 3893SOL    HW211499   4.103   2.429   1.043 -0.1245 -1.3909 -0.1504
 3894SOL     OW11500   3.486   2.471   3.644  0.0959 -0.3689 -0.3641
 3894SOL    HW111501   3.551   2.487   3.719 -0.1315 -0.1766 -0.2067
 3894SOL    HW211502   3.419   2.546   3.642  0.6411  0.1197 -1.3244
 3895SOL     OW11503   3.022   4.327   4.626 -0.0021 -0.0976 -0.0464
 3895SOL    HW111504   3.107   4.275   4.634 -0.6845 -1.3755 -0.7446
 3895SOL    HW211505   2.969   4.318   4.710 -1.2924 -2.7651 -1.0398
 3896SOL     OW11506   0.854   3.660   3.494 -0.3444  0.1715 -0.4506
 3896SOL    HW111507   0.925   3.605   3.450  0.8544  1.9298 -0.8156
 3896SOL    HW211508   0.878   3.673   3.591  1.3158  2.8964 -1.1189
 3897SOL     OW11509   2.631   2.446   1.751  0.3891  1.0461  0.2035
 3897SOL    HW111510   2.625   2.433   1.652 -0.7934  1.6697  0.1689
 3897SOL    HW211511   2.639   2.357   1.796 -1.4932  0.5587 -0.3399
 3898SOL     OW11512   3.196   2.413   3.271 -0.1563 -0.3397  0.1541
 3898SOL    HW111513   3.148   2.499   3.258  0.3498 -0.1909 -0.8083
 3898SOL    HW211514   3.242   2.414   3.360 -2.5395 -0.8117  1.4926
 3899SOL     OW11515   3.542   2.248   4.746 -0.4786  0.0120  0.5967
 3899SOL    HW111516   3.526   2.213   4.838  1.2638 -1.3802  0.4299
 3899SOL    HW211517   3.462   2.229   4.688 -2.1085  1.9933  2.0499
 3900SOL     OW11518   4.144   3.904   3.567  0.6002 -0.0579 -0.2975
 3900SOL    HW111519   4.108   3.857   3.487 -0.1132  0.0254 -0.0368
 3900SOL    HW211520   4.216   3.967   3.540  1.2750 -0.9814 -0.7060
 3901SOL     OW11521   0.216   3.132   2.309 -0.2992  0.0185  0.2052
 3901SOL    HW111522   0.146   3.170   2.248  1.2854  0.7544 -1.2431
 3901SOL    HW211523   0.239   3.040   2.279  1.5214  0.9051 -1.3168
 3902SOL     OW11524   3.414   3.312   3.723 -0.7709 -0.3250 -0.2818
 3902SOL    HW111525   3.324   3.280   3.753 -0.8603 -0.9262 -1.1532
 3902SOL    HW211526   3.466   3.235   3.686  0.3319 -0.0996  0.7324
 3903SOL     OW11527   4.696   2.273   0.245 -0.2884  0.4200 -0.3162
 3903SOL    HW111528   4.739   2.253   0.157 -0.2053  0.4292 -0.2778
 3903SOL    HW211529   4.609   2.224   0.251  0.1434 -0.3283 -0.0189
 3904SOL     OW11530   0.004   4.167   2.484 -0.6518 -0.4452 -0.2915
 3904SOL    HW111531   0.061   4.085   2.489  1.6671  1.0833 -0.1365
 3904SOL    HW211532   0.015   4.210   2.395  1.1676  1.6490  0.8393
 3905SOL     OW11533   4.766   3.184   2.425 -0.0295 -0.1557  0.5907
 3905SOL    HW111534   4.852   3.142   2.397 -0.2139 -0.3235  0.2628
 3905SOL    HW211535   4.703   3.112   2.456 -1.2546 -0.4796 -2.3210
 3906SOL     OW11536   3.713   1.053   1.944  0.4117  0.1651  0.6394
 3906SOL    HW111537   3.808   1.065   1.972  0.5232  0.2692  0.2129
 3906SOL    HW211538   3.660   1.018   2.022  1.3363 -2.6118  0.1194
 3907SOL     OW11539   4.829   1.771   2.485  0.4201 -0.1730 -0.3507
 3907SOL    HW111540   4.778   1.702   2.433 -0.7074  0.7304 -0.4754
 3907SOL    HW211541   4.814   1.758   2.583  2.3694 -1.7385 -0.1897
 3908SOL     OW11542   0.809   3.414   0.791 -0.3082  0.5825 -0.6831
 3908SOL    HW111543   0.871   3.493   0.790 -0.7201  0.9857  1.1556
 3908SOL    HW211544   0.742   3.423   0.717  0.2974  1.4069 -1.1504
 3909SOL     OW11545   0.461   2.313   3.132  0.0259  0.0929 -0.3920
 3909SOL    HW111546   0.481   2.223   3.172 -1.0493  0.1005  0.1951
 3909SOL    HW211547   0.473   2.308   3.033 -0.4254 -0.8289 -0.4176
 3910SOL     OW11548   4.277   1.999   2.578 -0.4511  0.0740  0.3323
 3910SOL    HW111549   4.248   2.070   2.643 -1.1061  0.4665 -0.3621
 3910SOL    HW211550   4.249   1.909   2.612 -0.9648  0.2917  0.4944
 3911SOL     OW11551   3.942   3.838   1.445  0.1044 -0.4980  0.0174
 3911SOL    HW111552   3.858   3.858   1.394 -0.4716 -2.1663  0.2550
 3911SOL    HW211553   3.920   3.831   1.542  0.8451  0.6937  0.2911
 3912SOL     OW11554   4.403   1.830   2.405  0.4714  0.2549  0.0446
 3912SOL    HW111555   4.348   1.760   2.450  1.3675  0.5128  1.6328
 3912SOL    HW211556   4.386   1.919   2.448 -0.1205  0.9172 -1.4763
 3913SOL     OW11557   4.391   1.685   4.450 -0.3762 -0.0527 -0.4656
 3913SOL    HW111558   4.333   1.691   4.531 -1.8127 -2.3677 -1.2221
 3913SOL    HW211559   4.361   1.609   4.393  2.4148 -0.3107 -1.7552
 3914SOL     OW11560   4.265   2.191   3.483 -0.1117 -0.1299 -0.1469
 3914SOL    HW111561   4.305   2.198   3.392  1.3905  1.2747  0.5630
 3914SOL    HW211562   4.338   2.186   3.551 -1.1972 -0.8354  1.0171
 3915SOL     OW11563   1.144   2.960   2.295  0.3160  0.2496  0.2893
 3915SOL    HW111564   1.191   3.038   2.254 -0.5959  0.7884  0.2303
 3915SOL    HW211565   1.136   2.887   2.228 -1.5752  1.2973 -0.7002
 3916SOL     OW11566   0.130   0.932   3.323 -0.5204  0.5252 -0.6743
 3916SOL    HW111567   0.052   0.871   3.317  0.7683 -1.4830  1.3342
 3916SOL    HW211568   0.129   0.980   3.411  0.8401 -0.0565 -0.3172
 3917SOL     OW11569   0.069   2.474   4.589 -0.8175 -0.0096  0.7022
 3917SOL    HW111570   0.093   2.469   4.686 -0.1997 -1.4804  0.5028
 3917SOL    HW211571   0.047   2.568   4.565  0.7404  0.7029  1.8767
 3918SOL     OW11572   4.593   2.833   3.011  0.1005 -0.3129  0.1988
 3918SOL    HW111573   4.682   2.812   2.972 -0.1590  0.4218 -0.8202
 3918SOL    HW211574   4.556   2.751   3.056  1.3028 -0.5983  0.6920
 3919SOL     OW11575   4.501   0.826   2.490  0.0503 -0.1053 -0.0923
 3919SOL    HW111576   4.564   0.768   2.542  1.2422  1.4253  0.2346
 3919SOL    HW211577   4.552   0.881   2.424 -0.8166  1.6963  0.6551
 3920SOL     OW11578   0.124   2.599   1.830  0.5702 -0.5618 -0.2276
 3920SOL    HW111579   0.167   2.605   1.921  2.0536  2.6638 -0.9915
 3920SOL    HW211580   0.025   2.601   1.840  0.6561 -1.5403  1.3203
 3921SOL     OW11581   3.959   2.145   3.123 -0.0214  0.1123 -0.0462
 3921SOL    HW111582   3.902   2.146   3.041 -0.4873 -0.7486  0.2627
 3921SOL    HW211583   3.907   2.180   3.201  0.6656  1.6843 -0.2512
 3922SOL     OW11584   0.088   3.946   1.471  0.1834 -0.3537  0.3925
 3922SOL    HW111585  -0.007   3.975   1.488  0.8381  2.1567  0.1638
 3922SOL    HW211586   0.094   3.908   1.379 -0.3905  0.6767 -0.0933
 3923SOL     OW11587   0.413   0.045   1.667 -0.3134  0.7237  0.6502
 3923SOL    HW111588   0.327   0.019   1.713 -0.8594 -0.1481 -0.7847
 3923SOL    HW211589   0.487  -0.012   1.703 -0.8777 -0.5058 -0.0370
 3924SOL     OW11590   2.847   1.834   0.179 -0.4636 -0.4726 -0.4113
 3924SOL    HW111591   2.749   1.850   0.166 -0.6443 -1.7495 -0.7050
 3924SOL    HW211592   2.865   1.815   0.276 -0.4207  0.2995 -0.2643
 3925SOL     OW11593   0.560   4.263   2.886  0.2590 -0.1102  0.5817
 3925SOL    HW111594   0.596   4.299   2.800 -1.0751 -0.6288 -0.2353
 3925SOL    HW211595   0.461   4.251   2.877  0.1972 -0.7628  1.9868
 3926SOL     OW11596   3.856   4.010   4.933 -0.2183 -0.9670 -0.0094
 3926SOL    HW111597   3.926   3.971   4.993 -0.4079  0.3317  1.1012
 3926SOL    HW211598   3.839   4.105   4.959  0.0108 -0.2018 -2.4335
 3927SOL     OW11599   3.562   3.162   3.114 -0.0423  0.7649 -0.2354
 3927SOL    HW111600   3.577   3.246   3.061 -1.6564  0.3952 -1.3639
 3927SOL    HW211601   3.536   3.088   3.052 -0.4877 -0.0796  0.9313
 3928SOL     OW11602   2.906   0.767   4.065  0.6195  0.6002 -0.0846
 3928SOL    HW111603   2.889   0.860   4.098 -0.9564  0.3605 -0.1661
 3928SOL    HW211604   2.997   0.763   4.022  2.0865  1.2998  2.7359
 3929SOL     OW11605   4.540   3.878   3.628  0.0167  0.0178 -0.8672
 3929SOL    HW111606   4.478   3.803   3.604  2.1061 -2.3773  0.7461
 3929SOL    HW211607   4.516   3.912   3.720  0.8187 -0.6507 -0.4027
 3930SOL     OW11608   4.977   3.048   2.349  0.9393 -1.0355  0.3392
 3930SOL    HW111609   4.928   2.972   2.308  0.6561 -0.6520 -0.0355
 3930SOL    HW211610   5.054   3.013   2.403  1.8023 -1.5127 -1.1422
 3931SOL     OW11611   1.094   3.637   4.557  0.5320 -0.0129 -0.2013
 3931SOL    HW111612   1.129   3.639   4.463  0.6238  0.1777 -0.1634
 3931SOL    HW211613   1.153   3.693   4.616  0.1382  0.3428 -0.1446
 3932SOL     OW11614   3.713   3.569   0.877  0.0275  0.6129  0.3899
 3932SOL    HW111615   3.696   3.491   0.817 -0.1232  0.9721 -0.0428
 3932SOL    HW211616   3.629   3.590   0.927  0.0983  0.4340  0.5858
 3933SOL     OW11617   4.943   4.243   4.154 -0.3309 -0.5095 -0.2660
 3933SOL    HW111618   5.022   4.303   4.153 -1.2342  0.7161  0.5142
 3933SOL    HW211619   4.864   4.290   4.194 -0.8203 -2.5213  1.3420
 3934SOL     OW11620   2.731   2.537   3.699 -0.2144 -0.1375 -0.6758
 3934SOL    HW111621   2.667   2.583   3.761 -2.1565 -3.8831  0.4178
 3934SOL    HW211622   2.824   2.545   3.735 -1.0524 -0.6618  1.7964
 3935SOL     OW11623   3.669   4.241   2.428 -0.1589  0.3403 -0.3949
 3935SOL    HW111624   3.607   4.166   2.406  1.4616 -1.7187  1.4408
 3935SOL    HW211625   3.755   4.229   2.378  0.8899 -0.3556  1.4251
 3936SOL     OW11626   4.870   4.808   2.980  0.1404 -0.3596 -0.0264
 3936SOL    HW111627   4.869   4.888   2.919 -0.7230  0.1112  0.5818
 3936SOL    HW211628   4.926   4.829   3.061  1.2834 -0.9826 -0.6352
 3937SOL     OW11629   3.062   1.833   4.322  0.2153  0.3872 -0.6932
 3937SOL    HW111630   3.098   1.799   4.234 -1.0398  0.8816 -1.4216
 3937SOL    HW211631   2.999   1.908   4.305 -0.1790  0.3809  0.6455
 3938SOL     OW11632   3.125   2.575   0.865 -0.2930 -0.0272 -0.2237
 3938SOL    HW111633   3.052   2.641   0.848 -1.0291 -0.9682 -0.7610
 3938SOL    HW211634   3.090   2.482   0.856  0.8413 -0.5033  0.0567
 3939SOL     OW11635   2.872   4.925   0.327 -0.5878  0.3299  1.0396
 3939SOL    HW111636   2.879   4.992   0.253 -1.4085 -0.0611  0.5899
 3939SOL    HW211637   2.777   4.920   0.359  0.0006  1.6109  3.2098
 3940SOL     OW11638   1.624   4.419   0.582  0.2814 -0.4899  0.0798
 3940SOL    HW111639   1.618   4.507   0.629  2.0105  0.9586 -2.1416
 3940SOL    HW211640   1.718   4.386   0.586 -0.3199 -2.1827  0.7296
 3941SOL     OW11641   0.179   4.007   3.942  0.4915  0.2866  0.6105
 3941SOL    HW111642   0.240   4.032   4.017  0.8591  0.8983  0.1190
 3941SOL    HW211643   0.204   4.059   3.860  2.5365 -2.9212 -1.0449
 3942SOL     OW11644   4.788   1.859   4.296  0.1269  0.2176  0.6353
 3942SOL    HW111645   4.716   1.908   4.249 -0.0533 -0.7864 -0.1801
 3942SOL    HW211646   4.749   1.805   4.371 -0.6683 -3.1325 -1.9168
 3943SOL     OW11647   4.660   3.727   3.222 -0.4037 -0.3740 -0.3003
 3943SOL    HW111648   4.730   3.655   3.225  0.5883  0.5886  0.2872
 3943SOL    HW211649   4.577   3.695   3.268  0.6602 -0.5113  1.6287
 3944SOL     OW11650   3.669   2.902   3.873  0.0197 -0.2909  0.2767
 3944SOL    HW111651   3.702   2.995   3.887  0.9902 -0.6365  0.3647
 3944SOL    HW211652   3.685   2.848   3.956 -1.2852 -0.3321  0.5225
 3945SOL     OW11653   4.326   3.269   4.233  0.4156 -0.3561 -0.4349
 3945SOL    HW111654   4.236   3.224   4.240  0.7536 -0.9955 -0.1065
 3945SOL    HW211655   4.367   3.274   4.324  0.4919  0.4098 -0.5077
 3946SOL     OW11656   2.632   4.127   3.802 -0.1769  0.2570 -0.0516
 3946SOL    HW111657   2.658   4.031   3.791 -0.0109  0.3568 -0.5626
 3946SOL    HW211658   2.712   4.181   3.829 -0.3623  0.1854  0.6655
 3947SOL     OW11659   3.319   3.957   3.577 -0.2291 -0.2722  0.1767
 3947SOL    HW111660   3.329   3.962   3.676  0.5830 -1.5271  0.1903
 3947SOL    HW211661   3.369   4.032   3.534  0.9844 -0.7629  0.6688
 3948SOL     OW11662   2.370   3.485   4.713 -0.5880  0.4675 -0.6495
 3948SOL    HW111663   2.433   3.414   4.746 -0.5354  0.0305 -1.6488
 3948SOL    HW211664   2.408   3.575   4.732 -1.0637  0.2794  1.4421
 3949SOL     OW11665   2.290   1.670   4.453 -0.2735  0.4881  0.1287
 3949SOL    HW111666   2.362   1.702   4.515 -0.8645  0.5154  0.8110
 3949SOL    HW211667   2.284   1.570   4.459 -1.5494  0.6131  1.5130
 3950SOL     OW11668   2.607   2.195   4.060  0.2760  0.0835 -0.3398
 3950SOL    HW111669   2.592   2.206   4.158  0.6134  1.4200 -0.4329
 3950SOL    HW211670   2.688   2.246   4.031  0.3029 -0.4572 -1.2852
 3951SOL     OW11671   3.665   2.871   4.994 -0.3735 -0.1163 -0.0766
 3951SOL    HW111672   3.620   2.959   5.011  1.8596  1.4554 -1.7793
 3951SOL    HW211673   3.682   2.860   4.896  0.4566 -1.9138  0.2207
 3952SOL     OW11674   3.913   5.034   4.276  0.0740 -0.4801 -0.6531
 3952SOL    HW111675   3.893   4.954   4.334 -1.0805 -1.7879 -2.7433
 3952SOL    HW211676   4.007   5.028   4.242  0.3137 -0.4115 -0.0155
 3953SOL     OW11677   3.596   3.791   3.772  0.0269 -0.4921 -0.1620
 3953SOL    HW111678   3.629   3.869   3.719 -2.1960  0.7386  0.1771
 3953SOL    HW211679   3.630   3.706   3.730  2.8559  0.5805 -0.2857
 3954SOL     OW11680   2.329   4.149   4.995 -0.1801  0.0560  0.2628
 3954SOL    HW111681   2.409   4.160   5.054  0.0733 -0.7001  0.0619
 3954SOL    HW211682   2.323   4.055   4.963  0.2444  0.6496 -1.6967
 3955SOL     OW11683   3.441   3.709   0.256 -0.0708 -0.1238  0.6383
 3955SOL    HW111684   3.392   3.640   0.203 -2.0844  0.8642  1.1261
 3955SOL    HW211685   3.528   3.671   0.287  1.4615 -0.6291 -3.6187
 3956SOL     OW11686   1.914   1.945   0.602  0.3554  0.8058  0.7571
 3956SOL    HW111687   1.872   2.008   0.536 -1.4684 -0.0884  1.0112
 3956SOL    HW211688   1.920   1.854   0.562  1.3350  0.7401  1.0364
 3957SOL     OW11689   0.310   3.122   5.022  0.0184 -0.4568  0.0462
 3957SOL    HW111690   0.317   3.221   5.015  1.1323 -0.4698  0.7102
 3957SOL    HW211691   0.384   3.079   4.971 -1.7426 -1.0586 -2.1675
 3958SOL     OW11692   4.504   3.762   0.556  0.0262 -0.6063  0.3321
 3958SOL    HW111693   4.442   3.718   0.621  1.5091 -4.0486 -0.3273
 3958SOL    HW211694   4.454   3.781   0.471 -0.7110 -1.0073  0.6655
 3959SOL     OW11695   3.382   2.486   4.387 -0.2085 -0.0500 -0.3237
 3959SOL    HW111696   3.465   2.490   4.443 -0.1102  1.2578 -0.5395
 3959SOL    HW211697   3.403   2.443   4.299  0.5670  1.4425 -0.8968
 3960SOL     OW11698   3.562   1.741   4.010 -0.3886 -0.1612  0.4314
 3960SOL    HW111699   3.513   1.715   3.927 -0.9413  1.0959  0.3387
 3960SOL    HW211700   3.584   1.659   4.063 -1.6748 -0.8366 -0.0360
 3961SOL     OW11701   4.584   3.180   4.114 -0.0036 -0.4793 -0.0351
 3961SOL    HW111702   4.622   3.268   4.143  0.7093 -1.2537  1.5037
 3961SOL    HW211703   4.484   3.182   4.125  0.2106 -0.7263  2.6940
 3962SOL     OW11704   0.112   4.002   4.896  0.1642  0.1563  0.4490
 3962SOL    HW111705   0.195   3.980   4.946  0.7156 -0.5474 -0.7264
 3962SOL    HW211706   0.135   4.035   4.804 -0.8162  1.3713  0.5992
 3963SOL     OW11707   4.950   3.403   1.383 -0.4203  0.4406  0.1093
 3963SOL    HW111708   4.923   3.327   1.324 -0.1279 -0.4578  1.0963
 3963SOL    HW211709   4.961   3.486   1.328  1.0315 -0.6316 -1.2919
 3964SOL     OW11710   2.196   1.913   4.782 -0.4613 -0.5199  0.1335
 3964SOL    HW111711   2.098   1.918   4.764 -0.3330  0.4216 -0.3610
 3964SOL    HW211712   2.247   1.926   4.697  0.1184  1.5425  0.7313
 3965SOL     OW11713   1.182   2.785   4.470  0.2892 -0.8366 -0.2025
 3965SOL    HW111714   1.143   2.867   4.429 -3.0035 -1.3774  1.4886
 3965SOL    HW211715   1.243   2.811   4.544 -0.7697  0.1549  0.3618
 3966SOL     OW11716   3.896   3.894   4.030  0.5391  0.1707  0.3073
 3966SOL    HW111717   3.840   3.971   4.000 -0.0440  0.2366  1.5265
 3966SOL    HW211718   3.873   3.869   4.124  1.2125 -1.0476  0.1797
 3967SOL     OW11719   3.497   3.022   0.300 -0.2781 -0.1078  0.2123
 3967SOL    HW111720   3.418   2.963   0.316 -0.1480  0.0913  1.7486
 3967SOL    HW211721   3.581   2.970   0.316 -0.1043 -0.1246 -0.7103
 3968SOL     OW11722   4.430   0.107   4.078 -0.4109  0.7497 -0.0797
 3968SOL    HW111723   4.427   0.017   4.035  1.8230  0.1263  0.9479
 3968SOL    HW211724   4.349   0.159   4.051 -0.2601 -0.4141 -3.1947
 3969SOL     OW11725   4.063   2.375   0.251  0.4726 -0.0733  0.2411
 3969SOL    HW111726   4.110   2.462   0.271 -0.2433  0.0785  1.3232
 3969SOL    HW211727   4.061   2.361   0.152 -1.6383  2.4436 -0.1791
 3970SOL     OW11728   4.844   1.427   4.079 -0.0240 -0.7778 -0.5636
 3970SOL    HW111729   4.927   1.374   4.061 -0.4974 -1.1341 -1.7391
 3970SOL    HW211730   4.870   1.522   4.099  0.5950  0.3750 -5.5331
 3971SOL     OW11731   1.535   3.644   3.547 -0.4169 -0.4086  0.3093
 3971SOL    HW111732   1.447   3.596   3.540  0.1112 -1.5059  0.8701
 3971SOL    HW211733   1.596   3.613   3.474  0.3789 -1.6156  1.4436
 3972SOL     OW11734   3.922   2.441   4.213  0.6386  0.0482 -0.0668
 3972SOL    HW111735   3.987   2.425   4.139 -0.8271  3.1635 -2.2395
 3972SOL    HW211736   3.949   2.524   4.263  0.7824 -1.1893  2.0148
 3973SOL     OW11737   4.572   2.962   1.425 -0.0155  0.1833  0.1277
 3973SOL    HW111738   4.579   2.867   1.394  1.6812 -1.1052  3.8047
 3973SOL    HW211739   4.479   2.979   1.458  0.1379 -0.8892  1.1912
 3974SOL     OW11740   3.352   2.063   4.316 -0.3243 -0.0111  0.3264
 3974SOL    HW111741   3.311   1.998   4.380  1.3388 -0.5321  0.9078
 3974SOL    HW211742   3.280   2.115   4.270 -1.6143 -0.9823  1.1984
 3975SOL     OW11743   4.144   3.066   4.041  0.2311 -0.1576  0.0632
 3975SOL    HW111744   4.232   3.019   4.044  0.2024 -0.2042  0.2112
 3975SOL    HW211745   4.148   3.142   3.976  0.5870  0.2488  0.5417
 3976SOL     OW11746   4.721   3.015   4.282  0.1023 -0.7582 -0.0238
 3976SOL    HW111747   4.702   2.924   4.246  0.2476 -1.2171  1.0185
 3976SOL    HW211748   4.661   3.082   4.238 -1.7946 -1.7149  0.9761
 3977SOL     OW11749   0.373   2.535   4.907 -0.5272  0.8507 -0.5471
 3977SOL    HW111750   0.324   2.615   4.872 -0.6357  1.2499  0.4778
 3977SOL    HW211751   0.468   2.559   4.925 -0.2210  0.3845 -1.4417
 3978SOL     OW11752   0.053   3.531   3.157  0.0429 -0.7250 -0.4108
 3978SOL    HW111753   0.091   3.609   3.107 -0.3936 -0.3419 -0.1497
 3978SOL    HW211754   0.118   3.500   3.226  0.3116 -0.7414 -0.6700
 3979SOL     OW11755   0.382   1.797   3.553  0.0587 -0.6526  0.2108
 3979SOL    HW111756   0.408   1.890   3.579  0.6261 -1.3578  2.3410
 3979SOL    HW211757   0.295   1.774   3.595 -0.2306 -1.0068 -0.5632
 3980SOL     OW11758   4.958   1.583   4.553 -0.1398  0.3980 -0.8319
 3980SOL    HW111759   4.956   1.503   4.493 -3.4626 -0.3927  0.1226
 3980SOL    HW211760   5.013   1.563   4.634 -2.5464 -1.8496  0.3928
 3981SOL     OW11761   4.166   2.436   3.596  0.5755 -0.5813 -0.3981
 3981SOL    HW111762   4.211   2.358   3.553  0.6470 -0.4123 -0.6277
 3981SOL    HW211763   4.073   2.444   3.561  0.6526 -0.4090 -0.5627
 3982SOL     OW11764   0.265   1.393   0.649 -0.0937 -0.1810 -0.2224
 3982SOL    HW111765   0.209   1.448   0.710 -0.4712 -1.8049  0.9748
 3982SOL    HW211766   0.320   1.329   0.703  0.6966 -0.6326 -1.5174
 3983SOL     OW11767   2.624   2.886   4.889 -0.0607  0.4441 -0.2524
 3983SOL    HW111768   2.567   2.954   4.843 -1.1545  0.6090  1.2918
 3983SOL    HW211769   2.654   2.921   4.977  0.7543 -0.4484 -0.1570
 3984SOL     OW11770   3.032   3.688   0.114  0.8682  0.2456 -0.0879
 3984SOL    HW111771   2.938   3.705   0.088  1.3193  0.8429 -1.3942
 3984SOL    HW211772   3.041   3.699   0.213 -0.5900 -0.6816  0.1756
 3985SOL     OW11773   4.537   1.558   3.582 -0.3150  0.3287 -0.4799
 3985SOL    HW111774   4.484   1.641   3.569 -2.0004 -0.7486 -0.7820
 3985SOL    HW211775   4.538   1.534   3.679  1.3867  1.4326 -0.1865
 3986SOL     OW11776   1.987   2.720   4.389 -0.4003 -0.7049  0.4699
 3986SOL    HW111777   1.917   2.753   4.326 -0.5704 -1.1296  0.4332
 3986SOL    HW211778   1.994   2.620   4.383 -0.5467 -0.7734  1.2517
 3987SOL     OW11779   4.251   3.618   3.128 -0.1215 -0.1854  0.1896
 3987SOL    HW111780   4.155   3.594   3.138 -0.1074 -1.1181 -1.5765
 3987SOL    HW211781   4.268   3.652   3.036  1.2824 -0.2593  0.3950
 3988SOL     OW11782   4.289   4.296   3.537  0.4626  0.7282 -0.3633
 3988SOL    HW111783   4.300   4.203   3.504 -0.2671  1.4082 -2.7392
 3988SOL    HW211784   4.249   4.295   3.628 -0.2464 -1.2778 -0.6603
 3989SOL     OW11785   2.820   2.460   4.823  0.0602 -0.0516  0.4901
 3989SOL    HW111786   2.811   2.534   4.890 -0.2077  0.3073  0.0731
 3989SOL    HW211787   2.857   2.379   4.867  0.6731  0.4334  0.8901
 3990SOL     OW11788   3.131   3.672   3.610 -0.1687 -0.3199 -0.0972
 3990SOL    HW111789   3.106   3.585   3.652 -0.7418  0.4899  1.3139
 3990SOL    HW211790   3.230   3.677   3.600 -0.0688 -0.8261  0.5440
 3991SOL     OW11791   0.204   2.413   1.174 -0.2775 -0.0209 -0.4824
 3991SOL    HW111792   0.236   2.455   1.259  1.6333 -0.7597 -0.8027
 3991SOL    HW211793   0.122   2.358   1.193  0.8483 -1.2130  1.1631
 3992SOL     OW11794   4.799   3.674   4.880 -0.1791  0.4128 -0.2466
 3992SOL    HW111795   4.774   3.622   4.799 -1.0025  1.0238 -0.3969
 3992SOL    HW211796   4.722   3.678   4.943  0.1443  0.7390  0.1376
 3993SOL     OW11797   3.249   4.105   0.713 -0.7873  0.4410 -0.2945
 3993SOL    HW111798   3.254   4.195   0.757 -0.2031  0.3493 -0.1753
 3993SOL    HW211799   3.341   4.073   0.690 -0.9098 -0.5207  0.4700
 3994SOL     OW11800   3.525   3.088   0.037 -0.3699  0.2863 -0.2693
 3994SOL    HW111801   3.538   3.081   0.136 -0.2785  3.0737 -0.0011
 3994SOL    HW211802   3.430   3.112   0.017 -0.7008 -1.4625 -0.9974
 3995SOL     OW11803   1.561   4.928   0.241  0.5477  0.1995  0.1399
 3995SOL    HW111804   1.560   4.942   0.340  0.7001 -1.4808  0.4089
 3995SOL    HW211805   1.471   4.948   0.204  0.5512  1.0647  0.5773
 3996SOL     OW11806   1.845   3.823   1.967  0.1770 -0.0529 -0.2708
 3996SOL    HW111807   1.831   3.913   1.926 -0.5639 -0.3563 -0.7078
 3996SOL    HW211808   1.820   3.825   2.063 -0.3951  0.0639 -0.4205
 3997SOL     OW11809   4.301   1.000   4.403  0.0547  0.3092  0.5241
 3997SOL    HW111810   4.222   0.998   4.341  0.5457  1.0353 -0.1489
 3997SOL    HW211811   4.382   0.965   4.356  0.0739 -0.7832  1.3307
 3998SOL     OW11812   3.505   4.963   4.496  0.3477 -0.7409  0.1092
 3998SOL    HW111813   3.412   4.935   4.472 -0.2578  1.7344 -0.6402
 3998SOL    HW211814   3.511   4.972   4.596  0.2159 -2.1632  0.2791
 3999SOL     OW11815   3.661   2.917   4.736 -0.0941  0.4860 -0.0569
 3999SOL    HW111816   3.747   2.913   4.686  0.5517 -0.5825  1.0781
 3999SOL    HW211817   3.641   3.012   4.761  1.2353  0.6542  0.4547
 4000SOL     OW11818   3.307   3.397   0.289 -0.0043 -0.3274 -0.3524
 4000SOL    HW111819   3.240   3.324   0.300  1.7770 -1.8162  1.3697
 4000SOL    HW211820   3.290   3.445   0.202 -1.3289 -2.6814 -1.4841
 4001SOL     OW11821   0.908   2.851   1.660 -0.4752 -0.2781  0.0155
 4001SOL    HW111822   0.838   2.905   1.708 -0.6415 -0.3803 -0.1109
 4001SOL    HW211823   0.894   2.858   1.562  1.1490  1.6752 -0.1435
 4002SOL     OW11824   3.139   2.016   3.688 -0.5664 -0.5097  0.3430
 4002SOL    HW111825   3.069   2.076   3.726 -1.6624 -0.3569 -1.7555
 4002SOL    HW211826   3.096   1.931   3.655  0.1255 -0.2789 -1.2862
 4003SOL     OW11827   4.448   3.704   4.669 -0.6493  0.0454  0.1658
 4003SOL    HW111828   4.522   3.755   4.627 -0.9407  1.0360  0.8052
 4003SOL    HW211829   4.410   3.639   4.603  0.6556 -0.3615 -0.2210
 4004SOL     OW11830   2.372   3.322   0.083 -0.4199  0.1014  0.0263
 4004SOL    HW111831   2.367   3.411   0.128 -0.5747  0.6926 -1.1025
 4004SOL    HW211832   2.426   3.331  -0.001  0.6959 -1.1815  0.5645
 4005SOL     OW11833   3.980   1.549   4.981  0.3045 -0.4181 -0.0902
 4005SOL    HW111834   3.909   1.590   5.039  0.9349 -1.0287  1.1457
 4005SOL    HW211835   3.970   1.449   4.983  1.0275 -0.4916 -0.1229
 4006SOL     OW11836   2.271   3.904   4.836  0.1788  0.5432 -0.4194
 4006SOL    HW111837   2.175   3.924   4.814  0.3718  0.5534 -1.2814
 4006SOL    HW211838   2.275   3.831   4.904 -0.4258 -0.4177 -1.3732
 4007SOL     OW11839   3.804   2.713   4.045 -0.3147 -0.2512  0.0501
 4007SOL    HW111840   3.828   2.762   4.129  0.7154  1.0689 -0.9673
 4007SOL    HW211841   3.888   2.690   3.995 -0.9701  1.2433 -1.8435
 4008SOL     OW11842   2.616   2.212   4.322  0.0887  0.0834  0.6735
 4008SOL    HW111843   2.672   2.163   4.388  2.0629  0.9362 -0.2999
 4008SOL    HW211844   2.611   2.309   4.349  0.3381  0.3003 -0.0502
 4009SOL     OW11845   1.857   2.607   4.829  0.1554 -0.2134 -0.9320
 4009SOL    HW111846   1.882   2.650   4.915  2.2854  0.1820 -1.6864
 4009SOL    HW211847   1.761   2.581   4.831 -0.4710  1.9558  0.6385
 4010SOL     OW11848   1.015   0.440   4.872  0.3694  0.2944  0.5806
 4010SOL    HW111849   0.955   0.468   4.798  0.0560  0.5562  0.9313
 4010SOL    HW211850   1.010   0.341   4.884 -0.1368  0.3358  0.7293
 4011SOL     OW11851   4.638   3.318   5.014  0.2891 -0.5292 -0.2376
 4011SOL    HW111852   4.621   3.230   5.058  0.8483 -0.1511  0.7773
 4011SOL    HW211853   4.718   3.362   5.057  1.1725 -0.3559 -1.9801
 4012SOL     OW11854   4.608   3.745   4.204 -0.9302 -0.1931  0.2927
 4012SOL    HW111855   4.638   3.828   4.157  0.4277 -0.3336  0.8626
 4012SOL    HW211856   4.513   3.755   4.234 -1.2545  0.5623 -0.9479
 4013SOL     OW11857   4.159   4.983   4.195 -0.2727  0.5140  0.0437
 4013SOL    HW111858   4.244   4.950   4.154 -0.4575  1.2913 -1.0251
 4013SOL    HW211859   4.171   4.996   4.293  0.3210 -1.0131  0.2024
 4014SOL     OW11860   4.181   3.300   3.383 -0.0400  0.4539 -0.8247
 4014SOL    HW111861   4.200   3.246   3.301  0.3614 -1.7869  0.6558
 4014SOL    HW211862   4.084   3.322   3.387  0.0205  1.0483 -2.1396
 4015SOL     OW11863   3.135   3.324   4.040 -0.3034 -0.0831 -0.0239
 4015SOL    HW111864   3.098   3.259   4.106 -1.0576  0.2851 -0.0760
 4015SOL    HW211865   3.065   3.391   4.017 -0.0221 -0.1514 -1.1296
 4016SOL     OW11866   3.727   0.574   1.453 -0.3164  0.1431 -0.1081
 4016SOL    HW111867   3.709   0.648   1.517 -0.4702  1.2379 -1.3681
 4016SOL    HW211868   3.787   0.506   1.495  2.0265  2.2922  0.2393
 4017SOL     OW11869   3.748   2.918   0.376 -0.3614 -0.3979  0.2492
 4017SOL    HW111870   3.833   2.898   0.327 -0.4474  0.9583 -0.5061
 4017SOL    HW211871   3.767   2.935   0.472  0.5437  1.8003 -0.2631
 4018SOL     OW11872   1.270   3.508   3.976  0.3868 -0.4549  0.1193
 4018SOL    HW111873   1.358   3.460   3.977  0.4968 -0.2504  0.8734
 4018SOL    HW211874   1.196   3.444   3.995  0.3944 -0.5766 -0.2474
 4019SOL     OW11875   3.102   3.481   4.542  0.5042  0.5108 -0.1751
 4019SOL    HW111876   3.067   3.388   4.554  1.2004  0.1084 -1.0810
 4019SOL    HW211877   3.032   3.538   4.499 -0.1978  0.6199  1.0856
 4020SOL     OW11878   3.377   3.906   4.945  0.4701 -0.4589 -0.6817
 4020SOL    HW111879   3.280   3.917   4.923  0.1149 -1.3689  0.3512
 4020SOL    HW211880   3.430   3.977   4.899 -0.7965  0.6668 -0.4658
 4021SOL     OW11881   3.934   0.773   2.900 -0.3841  0.8802  0.1582
 4021SOL    HW111882   3.965   0.678   2.892 -0.3795  0.6437  2.3730
 4021SOL    HW211883   3.918   0.810   2.809 -0.5578 -1.2969 -0.7754
 4022SOL     OW11884   3.468   3.102   4.537  0.3940 -0.3919  0.1943
 4022SOL    HW111885   3.498   3.176   4.477 -0.6003 -0.6519 -0.6527
 4022SOL    HW211886   3.486   3.127   4.632  0.2961  0.8347 -0.0947
 4023SOL     OW11887   5.028   1.534   0.443  0.2704 -0.1201 -0.0857
 4023SOL    HW111888   5.112   1.560   0.491  0.1943  0.2688 -0.1654
 4023SOL    HW211889   5.006   1.603   0.374  0.0991 -0.4203 -0.3327
 4024SOL     OW11890   3.309   3.430   4.238  0.1568 -0.4994  0.0247
 4024SOL    HW111891   3.279   3.525   4.253  1.0928 -0.2859  0.6215
 4024SOL    HW211892   3.257   3.391   4.162  0.4843  0.8426 -0.9313
 4025SOL     OW11893   4.401   4.803   4.231  0.0822 -0.4542 -0.0423
 4025SOL    HW111894   4.432   4.830   4.322  1.4911  0.9280 -0.8813
 4025SOL    HW211895   4.475   4.756   4.182 -0.0760  0.2851 -1.0409
 4026SOL     OW11896   4.677   1.750   4.797  0.4767 -0.2913 -0.0417
 4026SOL    HW111897   4.747   1.730   4.867  2.6067  1.8560 -1.3915
 4026SOL    HW211898   4.587   1.724   4.832  1.6845 -1.2873  2.6385
 4027SOL     OW11899   1.068   1.686   3.763  0.2069  0.6191  0.0124
 4027SOL    HW111900   1.049   1.773   3.808  1.9645  0.5408  0.9575
 4027SOL    HW211901   1.104   1.621   3.830 -0.3217 -0.5911 -0.8491
 4028SOL     OW11902   4.986   2.244   3.763  0.3055 -0.1940  0.3341
 4028SOL    HW111903   5.047   2.306   3.812  0.8780 -1.3313  1.1095
 4028SOL    HW211904   4.972   2.162   3.818 -0.6437 -0.6469 -0.5577
 4029SOL     OW11905   3.744   4.551   2.931 -0.1741 -0.4904  0.0120
 4029SOL    HW111906   3.843   4.555   2.945 -0.2468 -1.2381  0.8509
 4029SOL    HW211907   3.722   4.581   2.838  0.6351  1.8871  0.5126
 4030SOL     OW11908   4.699   3.258   3.834 -1.1263  0.1303  0.1053
 4030SOL    HW111909   4.768   3.189   3.856 -0.6659  0.0026 -1.6264
 4030SOL    HW211910   4.742   3.338   3.793 -1.8725  0.5972  0.2068
 4031SOL     OW11911   2.156   2.228   4.572  0.3198  0.1616  0.5407
 4031SOL    HW111912   2.254   2.235   4.590  0.2784  0.8202  0.5170
 4031SOL    HW211913   2.107   2.297   4.625  0.0113  0.8236 -0.5870
 4032SOL     OW11914   2.680   1.627   4.315  0.6573 -0.1141 -0.8442
 4032SOL    HW111915   2.655   1.532   4.300  1.4327  0.0163 -3.3414
 4032SOL    HW211916   2.634   1.661   4.398  0.8543 -2.7806  0.4639
 4033SOL     OW11917   4.517   2.607   3.119  0.1260  0.3072 -0.4818
 4033SOL    HW111918   4.440   2.544   3.133 -1.1292  1.5873 -1.3239
 4033SOL    HW211919   4.585   2.593   3.191 -0.5027 -1.4103 -0.1617
 4034SOL     OW11920   3.404   2.486   4.033 -0.5766 -0.3503 -0.1121
 4034SOL    HW111921   3.485   2.478   4.091  0.5846 -2.2714 -1.8751
 4034SOL    HW211922   3.428   2.536   3.950 -1.2112 -0.8930 -0.6253
 4035SOL     OW11923   4.883   3.852   4.561 -0.4464 -0.2037  0.5281
 4035SOL    HW111924   4.945   3.871   4.486 -0.8444  0.3617  0.3336
 4035SOL    HW211925   4.917   3.896   4.645 -0.5018 -0.0246  0.4571
 4036SOL     OW11926   4.278   4.836   0.306 -0.0345 -0.1875 -0.0690
 4036SOL    HW111927   4.191   4.801   0.273 -1.0066 -0.7598  2.8647
 4036SOL    HW211928   4.353   4.781   0.268 -1.0407 -0.8208 -1.1981
 4037SOL     OW11929   1.755   4.955   3.622  0.3995  0.6497 -0.4229
 4037SOL    HW111930   1.687   4.910   3.565  0.6572 -0.2055 -0.0879
 4037SOL    HW211931   1.711   4.993   3.703  0.5731 -2.2380  1.1861
 4038SOL     OW11932   1.447   1.326   3.836 -0.0508 -0.1711  0.6259
 4038SOL    HW111933   1.429   1.373   3.922 -0.6207  0.6187  0.0937
 4038SOL    HW211934   1.427   1.388   3.760  0.0797 -0.9774 -0.0749
 4039SOL     OW11935   4.811   3.503   3.728 -0.0254 -0.5424 -0.2590
 4039SOL    HW111936   4.904   3.540   3.721 -0.2589  0.1583  0.2216
 4039SOL    HW211937   4.757   3.561   3.790 -0.9858 -0.5345 -1.0863
 4040SOL     OW11938   3.584   2.160   0.080  0.1880  0.6701 -0.5121
 4040SOL    HW111939   3.557   2.254   0.101 -0.2072  0.3932  0.2589
 4040SOL    HW211940   3.603   2.111   0.165 -0.6392 -0.2429 -0.8314
 4041SOL     OW11941   0.621   3.937   4.104  0.7708 -0.0299 -0.0107
 4041SOL    HW111942   0.586   3.996   4.031  0.2361  2.0220  1.8113
 4041SOL    HW211943   0.694   3.984   4.153  0.8764 -1.2106  1.0157
 4042SOL     OW11944   4.765   1.999   4.712  0.2145 -0.1968  0.3271
 4042SOL    HW111945   4.722   1.913   4.740  1.6161 -0.4563  1.8200
 4042SOL    HW211946   4.847   1.980   4.659 -0.3969  0.2685 -0.8166
 4043SOL     OW11947   4.927   4.551   3.876 -0.5513  0.1504 -0.5079
 4043SOL    HW111948   4.847   4.565   3.818  0.2421 -1.9975 -2.2618
 4043SOL    HW211949   4.906   4.582   3.969 -2.7891  1.2135 -1.2804
 4044SOL     OW11950   0.087   2.483   4.856 -0.2731 -0.0622 -0.3702
 4044SOL    HW111951   0.036   2.526   4.929 -0.9909 -0.6878 -0.4894
 4044SOL    HW211952   0.183   2.473   4.883 -0.4962 -0.1213  0.4036
 4045SOL     OW11953   1.035   3.165   4.619 -0.0319  0.1318 -0.1486
 4045SOL    HW111954   1.013   3.256   4.582  0.4903 -0.2099 -1.3489
 4045SOL    HW211955   0.979   3.148   4.700  0.2590  1.7395  0.4220
 4046SOL     OW11956   3.372   2.804   0.602 -0.1305 -0.1918  0.1814
 4046SOL    HW111957   3.401   2.767   0.514 -2.2787 -0.2844 -0.5461
 4046SOL    HW211958   3.396   2.901   0.607 -2.0076  0.4036 -1.5178
 4047SOL     OW11959   1.000   4.484   0.870  0.3396 -0.2651 -0.6651
 4047SOL    HW111960   1.091   4.455   0.901 -0.2491  0.0944  1.6429
 4047SOL    HW211961   0.951   4.525   0.947 -2.1586 -1.3069 -1.6047
 4048SOL     OW11962   2.908   3.945   4.251 -0.4351  0.4875 -0.0875
 4048SOL    HW111963   2.877   3.855   4.221  0.5840  0.1965 -0.3123
 4048SOL    HW211964   2.960   3.935   4.337 -1.5963  1.0606  0.7070
 4049SOL     OW11965   3.659   3.384   0.660  0.2397  0.0316  0.3133
 4049SOL    HW111966   3.577   3.421   0.616 -0.3261 -3.0684 -1.5569
 4049SOL    HW211967   3.739   3.403   0.603  0.1216 -0.6407 -0.0831
 4050SOL     OW11968   3.350   4.372   1.739  0.6514 -0.3138  0.6542
 4050SOL    HW111969   3.313   4.295   1.687  1.1107 -0.4259  0.4827
 4050SOL    HW211970   3.388   4.339   1.826  0.1345 -0.1659  0.9392
 4051SOL     OW11971   0.781   4.648   4.197 -0.1156  0.0278  0.1696
 4051SOL    HW111972   0.845   4.630   4.122  0.6743  1.0330  0.5793
 4051SOL    HW211973   0.815   4.725   4.252 -1.1235 -0.1350  1.0468
 4052SOL     OW11974   3.773   4.686   4.734 -0.0499  0.1538  0.0349
 4052SOL    HW111975   3.726   4.650   4.654  0.8610  0.0757 -0.4723
 4052SOL    HW211976   3.860   4.639   4.747  0.0524  0.5186  0.7728
 4053SOL     OW11977   1.739   4.091   2.375  0.2721 -0.3449  0.4491
 4053SOL    HW111978   1.801   4.091   2.454  0.2468 -2.6302  0.5118
 4053SOL    HW211979   1.670   4.020   2.387 -0.5734  0.1937 -1.0120
 4054SOL     OW11980   0.564   4.234   1.476 -0.2800 -0.5083 -0.2579
 4054SOL    HW111981   0.476   4.263   1.438 -0.0447 -1.7828 -1.9176
 4054SOL    HW211982   0.557   4.224   1.575 -1.0621  2.5288  0.0837
 4055SOL     OW11983   3.486   3.947   0.649 -0.4338  0.5366 -0.2934
 4055SOL    HW111984   3.538   3.974   0.568  2.4945 -1.0572  0.8873
 4055SOL    HW211985   3.535   3.977   0.731 -2.0246 -0.0516  0.9268
 4056SOL     OW11986   3.560   4.899   1.966 -0.1577  0.5187  0.2253
 4056SOL    HW111987   3.607   4.815   1.938  1.5019  1.0105  1.3909
 4056SOL    HW211988   3.522   4.888   2.057  0.0937  1.0324  0.3977
 4057SOL     OW11989   3.450   3.636   1.432 -0.3252 -0.0968  0.5853
 4057SOL    HW111990   3.357   3.606   1.456  0.0917 -1.2548  0.8216
 4057SOL    HW211991   3.458   3.640   1.332 -0.6888  0.2160  0.5652
 4058SOL     OW11992   3.995   4.560   4.889  0.6151  0.4756  0.6955
 4058SOL    HW111993   3.912   4.515   4.921  0.0128  0.7283 -0.4747
 4058SOL    HW211994   3.999   4.652   4.927 -0.2888  0.9101 -0.2187
 4059SOL     OW11995   4.209   0.198   5.032 -0.1445 -0.1891 -0.4298
 4059SOL    HW111996   4.301   0.213   4.994 -0.0140  0.4902  0.1228
 4059SOL    HW211997   4.218   0.155   5.122 -0.3307  0.3697 -0.1355
 4060SOL     OW11998   4.208   2.858   0.490 -0.4956  0.3929 -0.0011
 4060SOL    HW111999   4.277   2.878   0.560  1.3238  0.8778 -1.8278
 4060SOL    HW212000   4.131   2.810   0.532 -0.5671  2.6313  2.7441
 4061SOL     OW12001   4.393   4.057   1.511 -0.2541 -0.4640  0.0577
 4061SOL    HW112002   4.320   4.095   1.568 -1.6053 -1.8896 -0.6702
 4061SOL    HW212003   4.358   4.038   1.419  0.9042 -1.6108 -0.1734
 4062SOL     OW12004   3.902   4.102   0.814  0.6917 -0.1048 -0.0450
 4062SOL    HW112005   3.973   4.033   0.829  0.3232 -0.1555  1.6981
 4062SOL    HW212006   3.928   4.187   0.859 -0.2595 -0.0733  0.4832
 4063SOL     OW12007   0.387   3.874   0.491  0.4025 -0.0648 -0.5089
 4063SOL    HW112008   0.424   3.885   0.583  0.2806  0.1857 -0.4877
 4063SOL    HW212009   0.426   3.945   0.432  0.0113  0.1546 -0.5037
 4064SOL     OW12010   4.106   0.729   0.806  0.0417  0.1663 -1.0860
 4064SOL    HW112011   4.167   0.788   0.754 -0.2333  1.9310  0.4907
 4064SOL    HW212012   4.150   0.705   0.893 -1.2918  1.1054 -0.1215
 4065SOL     OW12013   3.957   4.206   1.855 -0.3596 -0.1509  0.5049
 4065SOL    HW112014   4.011   4.124   1.873 -1.1612 -0.4331  1.6958
 4065SOL    HW212015   3.898   4.190   1.775  0.6611 -0.1316 -0.2796
 4066SOL     OW12016   4.527   3.451   0.674 -0.9161 -0.2524  0.4156
 4066SOL    HW112017   4.505   3.429   0.579  0.5508 -2.9068  0.6024
 4066SOL    HW212018   4.448   3.497   0.717 -2.5147 -1.1673 -1.3950
 4067SOL     OW12019   0.662   3.126   2.886  0.0473 -0.3044  0.5396
 4067SOL    HW112020   0.589   3.091   2.827  0.3606  0.1633 -0.1354
 4067SOL    HW212021   0.748   3.129   2.835  1.0476 -2.7451  1.8805
 4068SOL     OW12022   4.777   0.563   1.862 -0.1058 -0.2458  0.4307
 4068SOL    HW112023   4.830   0.502   1.921  1.5413  0.0028 -0.7340
 4068SOL    HW212024   4.762   0.520   1.774 -1.2241  0.0030  0.4786
 4069SOL     OW12025   0.499   4.932   1.126 -0.1046  0.3942  0.1681
 4069SOL    HW112026   0.499   4.980   1.038  0.2094 -0.2128 -0.1677
 4069SOL    HW212027   0.404   4.923   1.158 -0.1968  0.8868  0.0462
 4070SOL     OW12028   4.681   0.173   3.749 -0.0610 -0.1582  0.0677
 4070SOL    HW112029   4.628   0.238   3.803 -0.2798  0.3307 -0.7165
 4070SOL    HW212030   4.620   0.102   3.714 -0.3000  0.6176 -1.1565
 4071SOL     OW12031   4.334   3.205   1.624  0.5565 -0.1266 -0.1290
 4071SOL    HW112032   4.259   3.267   1.647  1.3440  1.0285 -0.5707
 4071SOL    HW212033   4.313   3.156   1.540 -0.5086 -1.2445  0.7485
 4072SOL     OW12034   4.096   1.038   0.469 -0.2347 -0.5747  0.6333
 4072SOL    HW112035   4.185   1.064   0.506  0.4193 -0.4290 -0.9500
 4072SOL    HW212036   4.089   1.070   0.374 -2.3699  0.2603  1.0233
 4073SOL     OW12037   4.515   4.526   4.529  0.4806 -0.2633 -0.0397
 4073SOL    HW112038   4.418   4.515   4.505  0.0986  0.9841  0.7971
 4073SOL    HW212039   4.545   4.447   4.582 -0.3638 -0.2423  0.5000
 4074SOL     OW12040   0.683   4.240   0.865 -0.3332 -0.1233 -0.2228
 4074SOL    HW112041   0.690   4.268   0.960  0.4574 -0.7168 -0.0953
 4074SOL    HW212042   0.740   4.159   0.850  0.6364  0.7620 -1.5136
 4075SOL     OW12043   3.119   4.599   5.033 -0.1936  0.0188  0.2490
 4075SOL    HW112044   3.094   4.608   4.936  0.2278  2.8411  0.3239
 4075SOL    HW212045   3.038   4.613   5.089  0.1207  1.6920  0.3312
 4076SOL     OW12046   0.131   3.473   0.783  0.0973  1.1081 -0.1751
 4076SOL    HW112047   0.207   3.474   0.719 -0.1579  1.2317 -0.4792
 4076SOL    HW212048   0.057   3.530   0.748 -0.1096  1.0414  0.1477
 4077SOL     OW12049   3.383   3.962   3.869 -0.4651  0.4396 -0.7170
 4077SOL    HW112050   3.452   3.892   3.856 -0.8272  0.2509 -1.6543
 4077SOL    HW212051   3.303   3.922   3.915  0.8106  1.1070  2.3088
 4078SOL     OW12052   0.545   3.341   2.084 -0.0278 -0.1915 -0.0571
 4078SOL    HW112053   0.602   3.315   2.006 -0.3954  2.1365 -1.1781
 4078SOL    HW212054   0.448   3.327   2.059 -0.1277  0.1588  0.1421
 4079SOL     OW12055   4.125   1.156   1.209 -0.6150 -0.2932  0.2563
 4079SOL    HW112056   4.101   1.226   1.142  0.0811 -0.1624  0.1369
 4079SOL    HW212057   4.094   1.067   1.176 -0.3844 -0.2128 -0.1854
 4080SOL     OW12058   1.039   0.450   1.536 -0.1294 -0.2147  0.2049
 4080SOL    HW112059   1.075   0.361   1.563 -1.3491 -0.4754  1.0686
 4080SOL    HW212060   1.097   0.490   1.465  0.9508 -1.2796  0.4632
 4081SOL     OW12061   0.937   4.263   4.463  0.4715 -0.0893  0.2511
 4081SOL    HW112062   0.985   4.236   4.547  0.4716 -1.0954 -0.0587
 4081SOL    HW212063   0.993   4.327   4.411  0.1152  1.2080  1.4188
 4082SOL     OW12064   4.593   2.535   0.240  0.0100 -0.1051  0.1486
 4082SOL    HW112065   4.618   2.438   0.248 -2.2996 -0.9617 -1.8792
 4082SOL    HW212066   4.655   2.589   0.297  1.7782 -2.6741  0.8923
 4083SOL     OW12067   4.944   4.800   0.169  0.3164  0.4296  0.3547
 4083SOL    HW112068   4.933   4.873   0.103 -0.2329  0.7227  0.7542
 4083SOL    HW212069   4.970   4.716   0.122 -1.2673  0.3235 -0.4007
 4084SOL     OW12070   0.030   4.860   3.180 -0.0902  0.4564  0.3649
 4084SOL    HW112071   0.082   4.936   3.141 -0.5812 -0.7454 -2.9346
 4084SOL    HW212072   0.093   4.792   3.216  0.4623  0.7630 -0.0099
 4085SOL     OW12073   3.362   0.090   2.777 -0.1959 -0.5366 -0.9901
 4085SOL    HW112074   3.419   0.028   2.723  0.7805 -0.5132 -0.0238
 4085SOL    HW212075   3.418   0.168   2.807 -0.6762 -0.6366  0.1865
 4086SOL     OW12076   3.849   3.759   0.682  0.2567  0.2349  0.1171
 4086SOL    HW112077   3.849   3.798   0.590 -0.3824  1.4982  0.6288
 4086SOL    HW212078   3.780   3.687   0.687 -1.4048  1.7606  0.2083
 4087SOL     OW12079   3.896   4.090   4.308  0.1705  0.1937  0.3275
 4087SOL    HW112080   3.800   4.071   4.327  0.1798 -0.7075 -0.4699
 4087SOL    HW212081   3.952   4.011   4.335  0.7146  0.7781  0.9464
 4088SOL     OW12082   0.770   4.324   2.013 -0.1181 -0.4339  0.5853
 4088SOL    HW112083   0.810   4.319   2.104 -1.0355  0.7046  1.0741
 4088SOL    HW212084   0.844   4.329   1.945  0.5700 -0.2136  1.3280
 4089SOL     OW12085   0.365   4.253   2.404  0.7118 -0.3952  0.1481
 4089SOL    HW112086   0.353   4.328   2.339  1.7039  0.1883  0.6186
 4089SOL    HW212087   0.316   4.273   2.488 -1.0399 -1.4058 -0.5821
 4090SOL     OW12088   4.751   3.205   4.457  0.6776  0.4373  0.2837
 4090SOL    HW112089   4.756   3.117   4.409  2.3874 -0.4551  1.9609
 4090SOL    HW212090   4.825   3.264   4.424  1.3229  0.1391  1.1504
 4091SOL     OW12091   3.414   0.459   4.927 -0.5780  0.0437  0.0154
 4091SOL    HW112092   3.469   0.455   4.844 -0.7024 -0.3588 -0.0520
 4091SOL    HW212093   3.378   0.551   4.940 -2.5467 -0.4222 -1.6594
 4092SOL     OW12094   4.680   3.674   3.893 -0.1555 -0.2072  0.3951
 4092SOL    HW112095   4.682   3.773   3.901 -0.8995 -0.0089 -1.4117
 4092SOL    HW212096   4.588   3.641   3.911 -0.4542 -0.3092 -1.1524
 4093SOL     OW12097   3.576   4.899   2.938  0.3623  0.7840  0.1359
 4093SOL    HW112098   3.532   4.809   2.939 -0.9932  1.4136  2.0671
 4093SOL    HW212099   3.560   4.942   2.849 -2.8971  0.9195  0.6850
 4094SOL     OW12100   4.074   4.943   2.494  0.1836 -0.6300  0.7182
 4094SOL    HW112101   4.020   5.020   2.459 -0.0616 -1.5768 -1.1177
 4094SOL    HW212102   4.014   4.880   2.543 -0.0455 -0.7454  0.2987
 4095SOL     OW12103   1.610   2.179   0.160 -0.0849  0.1522  0.3176
 4095SOL    HW112104   1.591   2.268   0.202  3.6272 -0.0756  3.0096
 4095SOL    HW212105   1.558   2.108   0.206 -1.2203  0.6358 -0.1888
 4096SOL     OW12106   1.436   0.388   0.681  0.2503  0.0436 -0.2756
 4096SOL    HW112107   1.366   0.397   0.752  1.6315  0.4337  1.0847
 4096SOL    HW212108   1.525   0.414   0.718  1.4428 -2.0881 -1.4595
 4097SOL     OW12109   0.221   0.325   2.832 -0.0034  0.3068 -0.5347
 4097SOL    HW112110   0.191   0.392   2.899  0.1482  0.8057 -0.9656
 4097SOL    HW212111   0.295   0.270   2.871 -0.3889  0.1281 -0.0440
 4098SOL     OW12112   4.122   3.747   4.150 -0.0072  0.0974  0.1812
 4098SOL    HW112113   4.166   3.670   4.104  0.6692  0.2467  0.5702
 4098SOL    HW212114   4.031   3.761   4.111  0.7743  0.6269 -1.5718
 4099SOL     OW12115   0.175   4.054   2.067  0.4672  0.2263  0.4121
 4099SOL    HW112116   0.235   4.106   2.006  0.7692 -1.0465 -0.4172
 4099SOL    HW212117   0.230   4.012   2.139  0.3118  0.5422  0.7155
 4100SOL     OW12118   4.027   1.757   4.294  0.1988 -0.4162  0.2025
 4100SOL    HW112119   4.028   1.665   4.333 -1.4110 -1.2991 -1.6468
 4100SOL    HW212120   3.955   1.763   4.225  0.6025  2.1021 -0.1062
 4101SOL     OW12121   4.921   2.249   1.717  0.0077  0.6848 -0.7120
 4101SOL    HW112122   4.866   2.331   1.701  1.0231  1.4281 -0.4934
 4101SOL    HW212123   5.018   2.272   1.711  0.3098 -0.5405 -0.7958
 4102SOL     OW12124   1.507   2.704   2.108 -0.3639 -0.2098  0.9555
 4102SOL    HW112125   1.422   2.659   2.080 -0.7881 -0.1345  2.0621
 4102SOL    HW212126   1.531   2.773   2.040 -0.4740 -1.1148 -0.0345
 4103SOL     OW12127   2.878   4.566   1.642 -0.1900 -0.4003  0.1043
 4103SOL    HW112128   2.853   4.633   1.712 -0.4644 -1.0869  0.6865
 4103SOL    HW212129   2.949   4.505   1.679  2.0670  1.2237 -1.3528
 4104SOL     OW12130   4.650   4.049   4.556 -0.4577  0.3830 -0.4073
 4104SOL    HW112131   4.750   4.038   4.556 -0.3117  1.4952  0.7788
 4104SOL    HW212132   4.620   4.079   4.646 -2.2215 -2.5940  0.1303
 4105SOL     OW12133   4.855   0.430   0.305  0.8547 -0.2157 -0.1698
 4105SOL    HW112134   4.847   0.489   0.385 -0.8463 -0.5576 -0.0537
 4105SOL    HW212135   4.899   0.345   0.331  0.9971 -0.0247  0.2305
 4106SOL     OW12136   0.617   4.889   3.957 -0.1240  0.5923 -0.4180
 4106SOL    HW112137   0.704   4.913   4.000  0.8235 -1.0146 -1.3205
 4106SOL    HW212138   0.631   4.812   3.894 -2.6040 -1.3345  1.1850
 4107SOL     OW12139   0.431   3.659   0.756  0.4346  0.4729 -0.1809
 4107SOL    HW112140   0.390   3.610   0.679 -3.2306  0.6051  1.4910
 4107SOL    HW212141   0.393   3.751   0.761  2.2119  1.2146  0.6061
 4108SOL     OW12142   3.559   4.528   0.716  0.3562  0.2740  0.1381
 4108SOL    HW112143   3.518   4.584   0.644  0.7293  0.7104  0.2618
 4108SOL    HW212144   3.650   4.500   0.688 -0.6444 -2.2325 -0.9480
 4109SOL     OW12145   3.957   0.047   5.009 -0.3096 -0.4262  0.0014
 4109SOL    HW112146   4.050   0.083   5.009 -0.3338 -0.3547 -0.7619
 4109SOL    HW212147   3.900   0.100   5.072  0.7161 -1.9378  2.3397
 4110SOL     OW12148   4.327   0.986   3.480  0.1812 -0.0464  0.3449
 4110SOL    HW112149   4.290   0.927   3.408 -0.3640  0.7280 -0.0194
 4110SOL    HW212150   4.298   1.081   3.464  1.2207  0.3630  0.8027
 4111SOL     OW12151   4.780   0.222   2.266  0.1500  0.0853  0.3320
 4111SOL    HW112152   4.831   0.151   2.217 -1.3322 -3.1865  3.0643
 4111SOL    HW212153   4.831   0.249   2.347 -0.3616  0.3491  0.5700
 4112SOL     OW12154   4.071   4.486   1.139  0.2732 -0.0582 -0.2806
 4112SOL    HW112155   4.140   4.556   1.123 -0.4901  1.0396  0.9411
 4112SOL    HW212156   4.082   4.449   1.231 -1.6600  1.3021  0.5864
 4113SOL     OW12157   4.587   4.753   4.669  0.1748  0.4158  0.8797
 4113SOL    HW112158   4.577   4.668   4.617 -0.1172  0.5261  0.7554
 4113SOL    HW212159   4.567   4.831   4.610  2.0663  0.6774  0.5196
 4114SOL     OW12160   4.008   3.663   2.240 -0.1289 -0.0784 -0.1000
 4114SOL    HW112161   4.072   3.724   2.286 -1.4693  0.6589  0.8416
 4114SOL    HW212162   4.049   3.572   2.232  1.9754  0.9110 -1.6699
 4115SOL     OW12163   2.580   1.953   0.562 -0.1083  0.1733  0.3590
 4115SOL    HW112164   2.578   1.858   0.594 -2.3145 -0.5303 -1.5661
 4115SOL    HW212165   2.674   1.986   0.563  0.6393 -1.7601  1.7498
 4116SOL     OW12166   1.259   3.287   1.558  0.1815  0.4519  0.4006
 4116SOL    HW112167   1.217   3.313   1.471  2.7522  1.2490 -0.7036
 4116SOL    HW212168   1.252   3.364   1.623 -0.7319  0.2797  0.5133
 4117SOL     OW12169   4.561   3.357   4.754  0.2638  0.8999  0.3345
 4117SOL    HW112170   4.621   3.424   4.710 -0.5167  0.5718 -1.2886
 4117SOL    HW212171   4.605   3.323   4.837  3.0735 -0.4889 -1.5467
 4118SOL     OW12172   4.602   0.602   1.395 -0.4824  0.4851  0.1039
 4118SOL    HW112173   4.644   0.580   1.308  1.5445  0.5390  1.0156
 4118SOL    HW212174   4.625   0.695   1.422 -3.2823  1.4465 -0.4812
 4119SOL     OW12175   4.773   0.007   4.632 -0.3385  0.3505 -0.4013
 4119SOL    HW112176   4.725  -0.077   4.606 -1.0270  0.9002 -0.9555
 4119SOL    HW212177   4.755   0.027   4.729  0.6757 -0.6765  0.0273
 4120SOL     OW12178   3.760   4.441   5.001 -0.1005  0.4567 -0.4442
 4120SOL    HW112179   3.692   4.400   4.939 -0.1210  0.6046 -0.5188
 4120SOL    HW212180   3.722   4.524   5.042 -0.3938 -0.0734  0.3929
 4121SOL     OW12181   4.982   4.788   0.834 -0.0626  0.4615  0.0344
 4121SOL    HW112182   4.991   4.887   0.843  0.4473  0.4625 -0.4348
 4121SOL    HW212183   5.020   4.743   0.915  1.2655  0.5958 -0.4891
 4122SOL     OW12184   4.798   3.882   0.775 -0.0305 -0.1703  0.7499
 4122SOL    HW112185   4.714   3.916   0.734 -0.7771 -0.9384  1.6007
 4122SOL    HW212186   4.793   3.892   0.875  0.9958 -0.0041  0.8009
 4123SOL     OW12187   0.171   3.746   0.589 -0.0780  0.1314 -0.1345
 4123SOL    HW112188   0.104   3.795   0.644  1.2599 -0.4712  2.1591
 4123SOL    HW212189   0.241   3.810   0.557  0.3400  0.1394  0.7758
 4124SOL     OW12190   0.769   4.708   0.127  0.0618  0.7103 -0.2882
 4124SOL    HW112191   0.749   4.614   0.152 -0.9444  0.4702 -1.8425
 4124SOL    HW212192   0.855   4.712   0.077  0.7012  0.8024  0.8002
 4125SOL     OW12193   1.297   0.230   0.421  0.1702  0.4766  0.1073
 4125SOL    HW112194   1.360   0.184   0.484 -1.1738  0.6890  1.6737
 4125SOL    HW212195   1.210   0.180   0.419  0.2166  0.3840 -1.7481
 4126SOL     OW12196   2.502   3.365   1.265  0.1773 -0.2163  0.1341
 4126SOL    HW112197   2.551   3.394   1.184 -0.6686 -0.1699 -0.3716
 4126SOL    HW212198   2.479   3.268   1.257 -1.4836  0.1964 -0.5277
 4127SOL     OW12199   0.344   3.898   4.481  0.3490 -0.7985  0.3470
 4127SOL    HW112200   0.334   3.838   4.401  0.2090 -1.4674  0.8578
 4127SOL    HW212201   0.386   3.846   4.556 -1.6323 -0.8708  1.4695
 4128SOL     OW12202   4.856   1.176   0.189  0.0655  0.1867 -0.1875
 4128SOL    HW112203   4.935   1.129   0.150 -0.4285  1.1116 -2.4679
 4128SOL    HW212204   4.774   1.119   0.178 -0.1437  0.6144 -0.8591
 4129SOL     OW12205   4.121   4.534   1.505  0.3146  0.0943  0.2733
 4129SOL    HW112206   4.112   4.479   1.588 -1.6087 -1.5148 -0.9052
 4129SOL    HW212207   4.060   4.613   1.511 -1.4611 -1.1528 -0.3798
 4130SOL     OW12208   0.485   3.911   1.381  0.1211  0.0116 -0.2811
 4130SOL    HW112209   0.523   4.000   1.406  1.2934 -0.8358  1.1078
 4130SOL    HW212210   0.555   3.857   1.335 -0.5436 -0.2625 -0.9853
 4131SOL     OW12211   3.781   4.943   1.657 -0.1877 -0.5239  0.5833
 4131SOL    HW112212   3.687   4.929   1.625 -0.9997 -0.5529  2.7927
 4131SOL    HW212213   3.843   4.883   1.606 -1.0213  0.8577 -2.2504
 4132SOL     OW12214   0.017   4.553   0.143 -0.1094 -0.0428  0.0694
 4132SOL    HW112215  -0.026   4.463   0.133 -1.6025  0.8072 -1.4933
 4132SOL    HW212216   0.117   4.542   0.144 -0.2023 -1.5800 -1.9131
 4133SOL     OW12217   4.553   4.528   2.286  0.6604  0.0096 -0.3518
 4133SOL    HW112218   4.540   4.615   2.240  2.1242  1.0775  1.1000
 4133SOL    HW212219   4.568   4.544   2.384 -1.0307 -2.0450  0.3140
 4134SOL     OW12220   4.657   4.326   1.153  0.2046 -0.0791  0.3453
 4134SOL    HW112221   4.602   4.242   1.159  0.6850 -0.3750  0.5969
 4134SOL    HW212222   4.754   4.304   1.158  0.3196  0.5446  0.9753
 4135SOL     OW12223   3.825   4.197   0.561  0.1054  0.0743 -0.0290
 4135SOL    HW112224   3.842   4.162   0.653 -0.8798 -0.8916 -0.1859
 4135SOL    HW212225   3.759   4.137   0.515  0.9320  0.2621 -1.5322
 4136SOL     OW12226   3.105   4.888   0.688 -0.0450  0.3036  0.0119
 4136SOL    HW112227   3.120   4.926   0.597  0.3379  0.2495  0.0520
 4136SOL    HW212228   3.193   4.874   0.733 -0.1936 -0.3976  0.0963
 4137SOL     OW12229   3.390   4.846   1.098  0.3903  0.3007 -0.5177
 4137SOL    HW112230   3.295   4.820   1.080  0.9489 -1.0902 -1.5880
 4137SOL    HW212231   3.392   4.940   1.131 -1.4806 -0.1011  0.9436
 4138SOL     OW12232   4.983   4.281   1.904 -0.0936 -0.4998  0.2553
 4138SOL    HW112233   4.931   4.250   1.983 -0.3032 -0.8534 -0.0171
 4138SOL    HW212234   5.069   4.231   1.897 -1.6390 -3.1305 -1.7602
 4139SOL     OW12235   3.486   4.732   0.510 -0.4746 -0.5210 -0.1003
 4139SOL    HW112236   3.414   4.710   0.445  0.1116  1.1216 -1.3852
 4139SOL    HW212237   3.504   4.830   0.508  3.3862 -1.0595 -1.6160
 4140SOL     OW12238   1.238   3.824   1.376  0.0177 -0.0478 -0.0749
 4140SOL    HW112239   1.263   3.732   1.407 -1.5291 -0.9788 -1.3991
 4140SOL    HW212240   1.144   3.822   1.341  0.8029  1.4468 -2.4987
 4141SOL     OW12241   0.169   4.284   0.816  0.3891 -0.8201 -0.3054
 4141SOL    HW112242   0.112   4.226   0.757 -3.2729  1.1356  1.0015
 4141SOL    HW212243   0.165   4.250   0.910  0.9941 -0.3589 -0.1064
 4142SOL     OW12244   3.879   3.914   4.689  0.6015 -0.0698 -0.1197
 4142SOL    HW112245   3.898   3.991   4.628 -0.6271  0.2993 -0.0639
 4142SOL    HW212246   3.878   3.946   4.784 -0.2155 -0.0661 -0.1165
 4143SOL     OW12247   0.656   4.596   1.438 -0.3816  0.1970 -0.0867
 4143SOL    HW112248   0.692   4.538   1.511 -0.0666 -0.9554 -1.1139
 4143SOL    HW212249   0.575   4.553   1.399  0.6160 -0.2707 -1.7518
 4144SOL     OW12250   0.059   3.506   3.756  0.1498  0.4216  0.0105
 4144SOL    HW112251   0.087   3.430   3.816 -1.8674 -0.4346 -0.0121
 4144SOL    HW212252   0.098   3.591   3.790  1.8855 -0.5088  0.4823
 4145SOL     OW12253   3.303   0.257   0.056 -0.4279 -0.3248  0.3185
 4145SOL    HW112254   3.240   0.299   0.120  0.5409  0.3331  0.8573
 4145SOL    HW212255   3.353   0.328   0.006  0.6464 -0.8214  0.6651
 4146SOL     OW12256   3.654   4.304   1.114 -0.3928  0.6173  0.3636
 4146SOL    HW112257   3.742   4.293   1.068 -0.3174 -0.0965  0.6580
 4146SOL    HW212258   3.609   4.386   1.081 -0.7560 -0.3446 -1.6834
 4147SOL     OW12259   0.244   4.901   1.215 -0.6389  0.6083  0.4994
 4147SOL    HW112260   0.188   4.984   1.214  1.4503  2.1370  1.5482
 4147SOL    HW212261   0.284   4.889   1.305  1.6944  0.3424 -0.4961
 4148SOL     OW12262   4.290   3.030   1.402  0.1317  0.1626  0.2095
 4148SOL    HW112263   4.196   3.000   1.419  0.0113 -0.5175 -1.4701
 4148SOL    HW212264   4.304   3.042   1.304  0.9706  3.1466  0.5875
 4149SOL     OW12265   3.660   3.230   1.291  0.3474  0.5331  0.3052
 4149SOL    HW112266   3.570   3.245   1.249 -0.6018 -1.6372  1.3922
 4149SOL    HW212267   3.678   3.301   1.358 -1.1707  0.3352  0.9732
 4150SOL     OW12268   0.265   0.729   4.614  0.1883 -0.3882  0.0707
 4150SOL    HW112269   0.197   0.712   4.543  1.3156  0.6378 -1.2988
 4150SOL    HW212270   0.302   0.641   4.645 -1.6828 -0.9592  0.8181
 4151SOL     OW12271   4.663   1.149   3.634 -0.2974  0.2738 -0.9429
 4151SOL    HW112272   4.663   1.208   3.715 -1.1849  0.1087 -0.8045
 4151SOL    HW212273   4.626   1.060   3.658  2.8616 -1.0876 -0.6696
 4152SOL     OW12274   2.455   3.601   0.087  0.4728  0.0623  0.2006
 4152SOL    HW112275   2.503   3.556   0.162  0.1119 -2.2485 -0.8294
 4152SOL    HW212276   2.412   3.685   0.119  1.8077  0.0811  2.0984
 4153SOL     OW12277   3.053   0.117   0.884 -0.7193 -0.0465  0.2827
 4153SOL    HW112278   3.081   0.077   0.797  1.4534  0.9477  0.4603
 4153SOL    HW212279   3.074   0.053   0.959 -0.3464  0.0751  0.2822
 4154SOL     OW12280   2.858   2.586   4.206 -0.6397 -0.1450 -0.0185
 4154SOL    HW112281   2.825   2.658   4.267 -2.3721 -1.4883  0.7114
 4154SOL    HW212282   2.933   2.536   4.250 -1.1611 -0.4214  0.5586
 4155SOL     OW12283   1.762   0.202   1.694  0.0675  0.0801 -0.2007
 4155SOL    HW112284   1.744   0.157   1.781 -2.0374 -0.1943 -0.7212
 4155SOL    HW212285   1.860   0.199   1.674  0.6494  0.4431  2.2811
 4156SOL     OW12286   3.509   4.146   2.886 -0.4750 -0.1177 -0.0036
 4156SOL    HW112287   3.548   4.100   2.966 -0.1692 -0.7541 -0.5152
 4156SOL    HW212288   3.411   4.124   2.880 -0.5593  0.1436  0.3342
 4157SOL     OW12289   0.386   3.332   2.376  0.1795  0.1554 -0.1154
 4157SOL    HW112290   0.345   3.420   2.352  0.9317  0.7184  0.5979
 4157SOL    HW212291   0.325   3.258   2.347 -1.1752  0.9414  0.5905
 4158SOL     OW12292   4.644   4.864   3.785 -0.2533 -0.3204 -0.5178
 4158SOL    HW112293   4.588   4.871   3.867 -0.1431 -1.0898 -0.3705
 4158SOL    HW212294   4.601   4.915   3.711 -1.6980 -1.7452 -0.7043
 4159SOL     OW12295   0.004   3.561   4.647  0.0788 -0.1685 -0.1806
 4159SOL    HW112296   0.010   3.658   4.673 -3.0316  0.3350 -1.0200
 4159SOL    HW212297   0.060   3.545   4.565  0.4214  0.9611 -0.1851
 4160SOL     OW12298   1.174   3.040   3.648  0.0628  0.5069  0.5143
 4160SOL    HW112299   1.221   2.982   3.582  0.8599  1.2527  0.3999
 4160SOL    HW212300   1.202   3.135   3.634  0.0020  0.7188  1.7171
 4161SOL     OW12301   4.138   4.629   3.267  0.7330 -0.6010  0.3429
 4161SOL    HW112302   4.120   4.682   3.350  0.5790 -0.7444  0.4019
 4161SOL    HW212303   4.218   4.571   3.281  1.0987 -0.1503  0.1676
 4162SOL     OW12304   0.942   0.106   1.866  0.2427  0.1668 -0.3311
 4162SOL    HW112305   0.913   0.015   1.837  0.8956  0.4389 -1.9541
 4162SOL    HW212306   0.886   0.175   1.820 -0.4730  0.6135  1.1437
 4163SOL     OW12307   3.523   4.596   3.519  0.4735  0.4719  0.0870
 4163SOL    HW112308   3.447   4.544   3.480  0.7884  0.4895 -0.5664
 4163SOL    HW212309   3.603   4.537   3.524 -0.0731 -0.1522  2.6038
 4164SOL     OW12310   0.363   4.879   2.778  0.1797 -0.4076  0.0574
 4164SOL    HW112311   0.348   4.805   2.844  0.2117 -1.1348 -0.7323
 4164SOL    HW212312   0.448   4.927   2.800  0.4368 -0.9530  0.2718
 4165SOL     OW12313   3.943   4.767   1.516  0.5731  0.1411  0.4174
 4165SOL    HW112314   4.025   4.822   1.503  0.6312  0.3019  1.3660
 4165SOL    HW212315   3.916   4.726   1.429  1.0170  0.9761 -0.1328
 4166SOL     OW12316   2.889   2.997   1.904  0.0430 -0.1616 -0.4263
 4166SOL    HW112317   2.972   2.979   1.958 -0.6398 -0.3256  0.6017
 4166SOL    HW212318   2.810   2.957   1.951 -0.5633 -0.4037 -1.6248
 4167SOL     OW12319   0.043   3.726   3.429 -0.0017  0.0716 -0.8443
 4167SOL    HW112320   0.044   3.629   3.450 -0.8590 -0.3094 -2.3798
 4167SOL    HW212321   0.136   3.758   3.413  0.4326 -0.1310  1.1058
 4168SOL     OW12322   0.852   3.733   4.003  0.2415 -0.4173  0.0894
 4168SOL    HW112323   0.763   3.723   4.046  1.4302 -0.0619  2.7953
 4168SOL    HW212324   0.917   3.669   4.045  1.8398  1.0077 -0.1029
 4169SOL     OW12325   4.633   5.020   0.935 -0.2972 -0.2331  0.2215
 4169SOL    HW112326   4.566   5.048   0.866 -0.5530 -0.8751  0.1968
 4169SOL    HW212327   4.641   4.920   0.934  0.7174 -0.1625  0.1752
 4170SOL     OW12328   2.850   0.156   3.253  0.1929  0.4011 -0.2056
 4170SOL    HW112329   2.788   0.228   3.284  0.1273  0.4429 -0.4336
 4170SOL    HW212330   2.909   0.191   3.180 -0.1609  0.0866 -0.6414
 4171SOL     OW12331   0.576   3.773   3.015  0.0628 -0.6015  0.1891
 4171SOL    HW112332   0.543   3.856   2.970 -1.1926 -1.2121 -0.0705
 4171SOL    HW212333   0.644   3.796   3.084 -0.9340  0.7274  0.7559
 4172SOL     OW12334   4.776   0.172   1.087 -0.5316  0.1434 -0.1658
 4172SOL    HW112335   4.714   0.123   1.025  0.0066 -0.5557 -0.1749
 4172SOL    HW212336   4.807   0.256   1.043  0.5526 -0.7804 -1.2605
 4173SOL     OW12337   3.177   4.558   2.902 -0.9609  0.3113 -0.2006
 4173SOL    HW112338   3.259   4.559   2.958 -2.1707 -1.0396  1.7250
 4173SOL    HW212339   3.148   4.463   2.887 -1.9004  0.7447 -1.2450
 4174SOL     OW12340   1.361   3.743   4.519  0.1617  0.7946  0.0256
 4174SOL    HW112341   1.356   3.656   4.569  0.1639  0.8621  0.1425
 4174SOL    HW212342   1.381   3.817   4.583  0.1183  0.8877 -0.0692
 4175SOL     OW12343   0.300   0.083   2.144 -0.0921  0.0215  0.3242
 4175SOL    HW112344   0.260   0.134   2.220  0.6432  1.0354  0.0640
 4175SOL    HW212345   0.398   0.103   2.139  0.2882 -1.7208  0.4266
 4176SOL     OW12346   4.044   3.457   3.852 -0.0748  0.0895  0.0587
 4176SOL    HW112347   3.994   3.542   3.835 -1.5091 -0.6595  0.3405
 4176SOL    HW212348   4.085   3.460   3.943 -1.9096 -0.2992  0.9601
 4177SOL     OW12349   0.517   0.587   2.230  0.6441  0.4376 -0.2304
 4177SOL    HW112350   0.574   0.633   2.298  1.6954 -0.6320 -0.3405
 4177SOL    HW212351   0.516   0.489   2.249 -2.1794  0.5329  0.4617
 4178SOL     OW12352   3.722   0.721   4.033  0.5098 -0.0289  0.3031
 4178SOL    HW112353   3.780   0.640   4.039 -0.3822 -0.8016 -0.9700
 4178SOL    HW212354   3.634   0.703   4.077 -0.2620 -0.3247 -1.2940
 4179SOL     OW12355   3.518   0.318   2.491  0.2605  0.5892 -0.2244
 4179SOL    HW112356   3.512   0.235   2.436  1.7826 -0.6617  1.3654
 4179SOL    HW212357   3.449   0.384   2.461  0.0089 -0.6273 -2.5270
 4180SOL     OW12358   3.437   4.074   0.992  0.1439 -0.1642  0.2317
 4180SOL    HW112359   3.466   4.133   1.067  0.9127 -0.4083  0.1428
 4180SOL    HW212360   3.518   4.044   0.941 -0.3955  0.3969 -0.9982
 4181SOL     OW12361   0.372   3.271   3.192 -0.6660  0.5637  0.4956
 4181SOL    HW112362   0.295   3.208   3.199 -2.0444  1.7233 -2.2709
 4181SOL    HW212363   0.345   3.361   3.228 -0.0114  0.5391  1.0575
 4182SOL     OW12364   0.434   3.653   3.771 -0.0143  0.4210 -0.4823
 4182SOL    HW112365   0.485   3.722   3.721  0.3444  0.1966 -0.4282
 4182SOL    HW212366   0.462   3.655   3.867  0.3803 -0.1552 -0.5839
 4183SOL     OW12367   4.932   3.181   1.207  0.0435 -0.1219  0.5597
 4183SOL    HW112368   4.835   3.157   1.210  0.1226 -0.4984  0.2691
 4183SOL    HW212369   4.963   3.180   1.112  0.8004 -1.9742  0.7799
 4184SOL     OW12370   0.094   3.112   1.774 -0.5311 -0.3574 -0.0297
 4184SOL    HW112371   0.126   3.062   1.855  1.0499  3.4157  2.0003
 4184SOL    HW212372  -0.005   3.125   1.779 -0.6406 -1.3565  0.5529
 4185SOL     OW12373   0.672   3.562   2.879 -0.0210  0.4780 -0.0817
 4185SOL    HW112374   0.635   3.476   2.914  0.1941  1.7426  3.7264
 4185SOL    HW212375   0.633   3.638   2.930  0.4271  2.6592 -2.7694
 4186SOL     OW12376   0.368   1.770   2.052 -0.3586  0.1843  0.2101
 4186SOL    HW112377   0.393   1.704   2.123 -1.1156  0.8395  1.1218
 4186SOL    HW212378   0.413   1.857   2.070 -1.0411  0.5359  0.2584
 4187SOL     OW12379   1.204   3.205   2.103 -0.7149  0.0004  0.1287
 4187SOL    HW112380   1.129   3.259   2.142 -0.9434 -1.2112  1.4440
 4187SOL    HW212381   1.289   3.258   2.109 -0.6583 -0.2808  2.7512
 4188SOL     OW12382   4.082   3.445   1.091  0.5081 -0.1106 -0.1846
 4188SOL    HW112383   4.168   3.395   1.099  1.0702  1.0842  2.2318
 4188SOL    HW212384   4.039   3.423   1.003  2.3605 -2.1224 -0.6929
 4189SOL     OW12385   4.755   3.971   1.063 -0.0994  0.1733  0.2019
 4189SOL    HW112386   4.828   4.032   1.094  0.6365 -0.7142  0.2656
 4189SOL    HW212387   4.742   3.898   1.129 -0.8026  0.1174  0.0121
 4190SOL     OW12388   4.065   3.869   0.800 -0.4279 -0.2552 -0.3333
 4190SOL    HW112389   3.980   3.839   0.757 -1.9769  1.9503  0.9494
 4190SOL    HW212390   4.079   3.819   0.886 -1.3545  0.4851  0.2725
 4191SOL     OW12391   0.853   4.897   1.037  0.1326  0.4061  0.0682
 4191SOL    HW112392   0.818   4.922   1.127  2.6027 -2.5728  2.0339
 4191SOL    HW212393   0.950   4.919   1.031  1.3963 -4.0652  0.3621
 4192SOL     OW12394   4.354   4.292   2.938  0.1106 -0.2857 -0.1379
 4192SOL    HW112395   4.384   4.381   2.904 -2.3263  0.4912 -0.4507
 4192SOL    HW212396   4.433   4.231   2.946  1.5506  1.2234 -1.9080
 4193SOL     OW12397   3.923   4.286   3.892 -0.0240 -0.2824  0.4809
 4193SOL    HW112398   3.971   4.216   3.839  0.2752  0.9891 -0.9922
 4193SOL    HW212399   3.833   4.251   3.918  0.4604 -1.5398  0.5770
 4194SOL     OW12400   0.817   0.597   1.437  0.1671 -0.6578  0.5441
 4194SOL    HW112401   0.901   0.581   1.488  1.9684  0.5008 -1.8814
 4194SOL    HW212402   0.812   0.534   1.359 -1.0724 -0.4999  0.4661
 4195SOL     OW12403   4.218   0.082   0.712 -0.0622  0.0660 -0.4830
 4195SOL    HW112404   4.163   0.014   0.760 -0.1521  1.9588  2.3233
 4195SOL    HW212405   4.280   0.035   0.648 -1.8684 -2.3971 -0.5780
 4196SOL     OW12406   3.766   3.174   3.905  0.1926 -0.8375  0.4575
 4196SOL    HW112407   3.750   3.225   3.989 -0.6337 -0.5469  0.1388
 4196SOL    HW212408   3.861   3.183   3.878 -0.0517  1.0542  0.0823
 4197SOL     OW12409   4.456   3.225   2.857 -0.5857 -0.3124 -0.1902
 4197SOL    HW112410   4.538   3.237   2.801 -0.7741 -0.8217 -0.5907
 4197SOL    HW212411   4.482   3.189   2.946 -0.3939 -0.7269 -0.4101
 4198SOL     OW12412   3.745   0.715   3.678  0.2283 -0.0911 -0.0029
 4198SOL    HW112413   3.764   0.627   3.633  0.5614 -0.3483  0.6151
 4198SOL    HW212414   3.830   0.767   3.686 -0.2895  1.2369 -2.2457
 4199SOL     OW12415   2.267   4.192   2.720 -0.4782  0.2697  0.0936
 4199SOL    HW112416   2.316   4.105   2.716 -0.2622  0.3165  1.3829
 4199SOL    HW212417   2.243   4.221   2.627  0.8460 -0.3594 -0.4664
 4200SOL     OW12418   4.593   2.993   2.165 -0.0718  0.7215  0.3415
 4200SOL    HW112419   4.585   3.078   2.113 -2.4570  1.5077  1.8443
 4200SOL    HW212420   4.503   2.951   2.173  0.8663 -1.3471  0.6947
 4201SOL     OW12421   0.370   4.467   3.732  0.3480  0.2835 -0.0188
 4201SOL    HW112422   0.326   4.554   3.755  0.4592  0.1165  0.8719
 4201SOL    HW212423   0.327   4.428   3.651 -0.4063  0.6517  0.2014
 4202SOL     OW12424   2.457   3.972   4.273  0.5643 -0.1092  0.0225
 4202SOL    HW112425   2.419   3.888   4.235 -1.8513  1.2126 -0.7312
 4202SOL    HW212426   2.425   3.984   4.367  0.5099  0.1518 -0.0254
 4203SOL     OW12427   4.386   4.032   3.165  0.4016 -0.2651 -0.3890
 4203SOL    HW112428   4.289   4.046   3.148  0.2696 -0.1538  0.4191
 4203SOL    HW212429   4.424   3.974   3.093  0.2648  1.5394 -1.9916
 4204SOL     OW12430   2.125   4.704   4.157 -0.1256  0.2298 -0.5849
 4204SOL    HW112431   2.202   4.640   4.157 -0.8571 -0.6763  0.2528
 4204SOL    HW212432   2.122   4.752   4.069 -0.8736 -2.5326 -2.2190
 4205SOL     OW12433   1.498   3.812   2.924 -0.7051 -0.5823  0.8676
 4205SOL    HW112434   1.442   3.860   2.857 -0.6310 -0.7893  0.6570
 4205SOL    HW212435   1.587   3.857   2.932 -1.3904  0.5891  2.2220
 4206SOL     OW12436   0.514   1.038   3.338 -0.3766 -0.2923 -0.1300
 4206SOL    HW112437   0.436   1.094   3.365 -0.8103 -1.5466  1.3642
 4206SOL    HW212438   0.554   0.995   3.419  0.0387 -2.0087 -1.1929
 4207SOL     OW12439   4.429   0.496   2.580 -0.1345  0.6304  0.0512
 4207SOL    HW112440   4.373   0.470   2.501  0.3441 -0.3763  0.0239
 4207SOL    HW212441   4.519   0.526   2.548  1.2998 -2.8961  0.2395
 4208SOL     OW12442   1.647   1.883   3.403 -0.0759  0.0742 -0.0811
 4208SOL    HW112443   1.694   1.971   3.412  0.0011  0.3000 -2.0903
 4208SOL    HW212444   1.555   1.890   3.441 -0.2825  1.2360 -0.7370
 4209SOL     OW12445   2.782   0.083   2.795 -0.1053 -0.0803 -0.4639
 4209SOL    HW112446   2.854   0.134   2.748 -0.6740 -1.0425 -2.4807
 4209SOL    HW212447   2.791  -0.015   2.774 -1.4907 -0.3106 -0.0748
 4210SOL     OW12448   3.617   4.587   4.513 -0.2166  0.1944 -0.4916
 4210SOL    HW112449   3.608   4.556   4.418  3.0830 -0.8560 -0.5845
 4210SOL    HW212450   3.550   4.539   4.570  0.4234 -2.3329 -1.6966
 4211SOL     OW12451   3.793   0.470   3.536 -0.0282  0.0622 -0.0611
 4211SOL    HW112452   3.878   0.474   3.484  1.2086 -0.7592  1.8012
 4211SOL    HW212453   3.729   0.408   3.491  1.2737 -1.2003 -0.2350
 4212SOL     OW12454   1.531   0.704   3.327  0.0968  0.2054 -0.2838
 4212SOL    HW112455   1.546   0.803   3.340  1.0278 -0.1022  1.2215
 4212SOL    HW212456   1.615   0.663   3.291  0.0996 -0.2219  0.2081
 4213SOL     OW12457   0.269   0.527   3.988 -0.6806  0.3697  0.0100
 4213SOL    HW112458   0.221   0.453   4.036 -0.7336  0.5308  0.2083
 4213SOL    HW212459   0.315   0.490   3.907 -0.0713 -0.0264  0.5244
 4214SOL     OW12460   3.350   4.466   2.561  0.4082 -0.6540 -0.0963
 4214SOL    HW112461   3.286   4.535   2.595 -0.0991 -1.5606  0.8349
 4214SOL    HW212462   3.424   4.511   2.511  0.4906  0.6309  1.1229
 4215SOL     OW12463   3.302   0.017   4.936  0.0188 -0.5702 -0.4240
 4215SOL    HW112464   3.290   0.105   4.981 -0.1317  0.3343 -2.1515
 4215SOL    HW212465   3.299  -0.056   5.005 -0.8862  0.6718  0.9228
 4216SOL     OW12466   3.844   0.083   2.733 -0.3877  0.0423  0.2068
 4216SOL    HW112467   3.823   0.133   2.817 -2.7999 -1.1740  0.4097
 4216SOL    HW212468   3.909   0.010   2.753  0.3025  0.7591  0.6522
 4217SOL     OW12469   4.634   3.541   1.123 -0.6033 -0.0213  0.0914
 4217SOL    HW112470   4.659   3.634   1.153  1.0017 -0.9246  1.7761
 4217SOL    HW212471   4.700   3.510   1.055 -0.6536 -0.2092  0.1294
 4218SOL     OW12472   2.933   0.273   2.637 -0.0916 -0.6321 -0.2886
 4218SOL    HW112473   2.907   0.369   2.631  0.1061 -0.4308  1.4620
 4218SOL    HW212474   3.019   0.265   2.688  2.1906 -1.4451 -3.9371
 4219SOL     OW12475   1.009   4.489   2.505 -0.3353  0.7410  0.1367
 4219SOL    HW112476   0.989   4.480   2.603  0.9417 -0.6865  0.2989
 4219SOL    HW212477   1.053   4.406   2.472  0.4280  1.7035 -1.3746
 4220SOL     OW12478   4.116   4.028   3.145  0.2869 -0.3073  0.4329
 4220SOL    HW112479   4.041   4.093   3.152  1.1599  0.6094  1.7081
 4220SOL    HW212480   4.101   3.968   3.066  0.7975  3.1361 -2.5468
 4221SOL     OW12481   0.081   4.332   2.242 -0.4719 -0.5082  0.2812
 4221SOL    HW112482   0.016   4.401   2.273 -0.4163 -0.2235 -0.2204
 4221SOL    HW212483   0.033   4.263   2.188 -0.3677 -0.3282 -0.0426
 4222SOL     OW12484   4.138   3.267   2.005  0.4020  0.2123 -0.5006
 4222SOL    HW112485   4.133   3.324   1.923  1.6346  0.9029 -0.1205
 4222SOL    HW212486   4.231   3.231   2.015 -0.6246 -3.1814 -1.5626
 4223SOL     OW12487   4.291   4.036   0.114  0.2420 -0.2924  0.4478
 4223SOL    HW112488   4.319   4.118   0.164 -0.4383  0.1733  0.0891
 4223SOL    HW212489   4.345   4.029   0.030  1.0342 -0.7994  0.9897
 4224SOL     OW12490   3.554   0.464   4.696  0.0140 -0.1496 -0.0954
 4224SOL    HW112491   3.510   0.544   4.654 -0.2134  0.1041  0.6018
 4224SOL    HW212492   3.554   0.388   4.631 -0.9509  0.0245 -0.3176
 4225SOL     OW12493   3.750   2.761   3.654  0.3968  0.1273  0.2410
 4225SOL    HW112494   3.833   2.796   3.609  2.2673 -0.9520  2.6153
 4225SOL    HW212495   3.719   2.826   3.723 -0.3065  0.1806 -0.1154
 4226SOL     OW12496   0.486   4.503   1.709 -0.1058  0.2172  0.1647
 4226SOL    HW112497   0.573   4.543   1.680  0.5685 -1.3882 -0.1145
 4226SOL    HW212498   0.412   4.537   1.650  0.5236  0.6069 -0.4123
 4227SOL     OW12499   4.539   4.342   0.866 -0.6302 -0.7029 -0.6001
 4227SOL    HW112500   4.618   4.342   0.927 -0.8403  2.5736 -0.1498
 4227SOL    HW212501   4.467   4.285   0.904 -0.8196  1.3362  2.4261
 4228SOL     OW12502   3.010   4.558   3.313 -0.0562  0.3576 -0.0760
 4228SOL    HW112503   3.011   4.483   3.379  0.1722  1.8535  1.6903
 4228SOL    HW212504   3.101   4.600   3.309 -0.4378  1.1765 -0.2992
 4229SOL     OW12505   3.352   0.379   4.272  0.0275  0.4417  0.0743
 4229SOL    HW112506   3.329   0.312   4.201 -0.5498  0.0547  0.6032
 4229SOL    HW212507   3.451   0.393   4.274 -0.0741  2.0906 -2.2268
 4230SOL     OW12508   4.098   1.405   2.154 -0.1174 -0.3708  0.1254
 4230SOL    HW112509   4.035   1.373   2.083 -3.0545  2.8932  0.9386
 4230SOL    HW212510   4.045   1.448   2.227  3.0661  1.1902  1.6960
 4231SOL     OW12511   3.114   1.561   3.108 -0.1560  0.2206 -0.1349
 4231SOL    HW112512   3.197   1.616   3.111 -0.0935  0.1031  0.5804
 4231SOL    HW212513   3.125   1.481   3.167  0.0582 -0.9938 -1.7350
 4232SOL     OW12514   3.497   3.896   1.524 -0.4036  0.3332 -0.0113
 4232SOL    HW112515   3.421   3.946   1.483 -1.1491 -0.5350  0.2753
 4232SOL    HW212516   3.494   3.801   1.494  0.9248  0.4125 -0.4577
 4233SOL     OW12517   4.076   0.105   3.452 -0.6112  0.2995  0.0481
 4233SOL    HW112518   4.152   0.117   3.389 -0.4130 -0.4367  0.1377
 4233SOL    HW212519   4.006   0.048   3.410 -2.0560  2.5456 -0.8074
 4234SOL     OW12520   1.094   4.961   3.313 -0.3619  0.0409 -0.3195
 4234SOL    HW112521   1.096   4.959   3.413 -0.6115 -0.4146 -0.3215
 4234SOL    HW212522   1.160   5.029   3.280  0.4609 -0.5182  0.1282
 4235SOL     OW12523   3.833   0.639   2.030 -0.8529 -0.1453  0.0759
 4235SOL    HW112524   3.851   0.696   1.950 -1.7945 -1.4377 -1.1129
 4235SOL    HW212525   3.857   0.689   2.113  1.8192  0.6213 -1.0531
 4236SOL     OW12526   3.705   3.325   1.716  0.0781  0.1039 -0.2250
 4236SOL    HW112527   3.692   3.406   1.660 -0.4189  1.0391  1.2026
 4236SOL    HW212528   3.784   3.273   1.682 -0.3972  0.4502 -1.9594
 4237SOL     OW12529   3.265   4.803   4.388  0.9196  0.5834 -0.0709
 4237SOL    HW112530   3.349   4.766   4.349  1.2039  1.1438 -0.0010
 4237SOL    HW212531   3.257   4.774   4.484  0.5672 -0.2208 -0.3314
 4238SOL     OW12532   4.113   4.015   1.896 -0.5016  0.5570 -0.4084
 4238SOL    HW112533   4.202   4.019   1.941 -0.0560  1.4263 -1.3141
 4238SOL    HW212534   4.072   3.925   1.911  0.0315  0.5164  0.9240
 4239SOL     OW12535   2.494   4.686   2.937 -0.7584  0.2822  0.0084
 4239SOL    HW112536   2.523   4.638   3.020 -1.2406  0.6645  0.4066
 4239SOL    HW212537   2.541   4.774   2.931 -2.3069  1.2322  1.0408
 4240SOL     OW12538   4.255   4.631   2.603 -0.0176 -0.1357 -0.3176
 4240SOL    HW112539   4.310   4.668   2.678 -1.4193  1.1328  0.1263
 4240SOL    HW212540   4.163   4.671   2.605 -0.5943 -1.2698 -1.7744
 4241SOL     OW12541   4.594   4.877   1.484  0.1502  0.3073 -0.2391
 4241SOL    HW112542   4.632   4.876   1.577  0.5778  3.1466 -0.3070
 4241SOL    HW212543   4.668   4.894   1.418 -0.2461 -1.0751 -1.1026
 4242SOL     OW12544   4.485   0.455   4.264  0.2682 -0.3187  0.1173
 4242SOL    HW112545   4.467   0.458   4.362 -1.1930 -1.8372 -0.0770
 4242SOL    HW212546   4.533   0.370   4.241 -0.0960 -0.3368 -0.6018
 4243SOL     OW12547   0.612   0.306   2.228 -0.5869  0.4067  0.3824
 4243SOL    HW112548   0.682   0.297   2.157 -1.4623 -1.0229 -0.3274
 4243SOL    HW212549   0.618   0.228   2.291  0.1124  1.5951  1.8798
 4244SOL     OW12550   3.074   3.663   3.345  0.0521 -0.3674 -0.5314
 4244SOL    HW112551   3.100   3.682   3.440  0.5899 -0.9085 -0.5647
 4244SOL    HW212552   3.023   3.741   3.309 -0.0595 -0.1039  0.1630
 4245SOL     OW12553   4.315   0.761   4.593 -0.5354  0.2431 -0.0536
 4245SOL    HW112554   4.309   0.844   4.537 -1.5722  0.1037 -0.1637
 4245SOL    HW212555   4.227   0.745   4.639 -0.3279 -0.7551  0.0184
 4246SOL     OW12556   4.321   3.647   4.901  0.2616 -0.0827 -0.8379
 4246SOL    HW112557   4.369   3.657   4.814 -1.1343 -0.0876 -1.6499
 4246SOL    HW212558   4.232   3.693   4.895  0.9784  1.8281  1.3234
 4247SOL     OW12559   3.961   2.501   2.077  0.0617 -0.2149  0.2963
 4247SOL    HW112560   4.008   2.567   2.019  0.0085  0.1290  0.6419
 4247SOL    HW212561   3.934   2.544   2.163 -3.6879  0.5517 -1.0673
 4248SOL     OW12562   0.269   3.509   3.341  0.2218 -0.1016 -0.0809
 4248SOL    HW112563   0.227   3.480   3.428  0.4573 -1.2041 -0.3239
 4248SOL    HW212564   0.268   3.609   3.336 -0.5329 -0.0438  0.8288
 4249SOL     OW12565   0.582   5.014   1.887 -0.2066  0.3096  0.8187
 4249SOL    HW112566   0.564   4.931   1.940 -0.8569  0.0647  0.2334
 4249SOL    HW212567   0.563   5.095   1.942  1.3994  0.0957  1.7360
 4250SOL     OW12568   3.614   3.955   3.087  0.6155  0.3841  0.0708
 4250SOL    HW112569   3.653   4.014   3.157  1.2421 -0.0470  0.1044
 4250SOL    HW212570   3.682   3.886   3.061  0.4581  0.6297 -1.0690
 4251SOL     OW12571   0.698   0.929   3.969 -0.1767 -0.8441 -0.0098
 4251SOL    HW112572   0.669   1.005   4.028  2.0536 -0.2720  0.4122
 4251SOL    HW212573   0.720   0.849   4.025 -4.0670 -2.5122 -0.5202
 4252SOL     OW12574   1.344   5.003   3.704 -0.3898  0.5325 -0.2733
 4252SOL    HW112575   1.443   5.014   3.691 -0.4367  1.7675  0.2622
 4252SOL    HW212576   1.315   5.057   3.783 -1.6126  0.7140 -0.8262
 4253SOL     OW12577   0.645   4.765   2.580  0.3344 -0.2022 -0.2806
 4253SOL    HW112578   0.597   4.852   2.585  2.2320  0.8455  0.5273
 4253SOL    HW212579   0.580   4.690   2.593 -1.6475  0.9345 -2.7600
 4254SOL     OW12580   4.252   0.062   0.240 -0.1520 -0.3907  0.1133
 4254SOL    HW112581   4.253  -0.034   0.267  1.0071 -0.3311  0.3456
 4254SOL    HW212582   4.319   0.112   0.295  0.2392  0.2795 -0.9439
 4255SOL     OW12583   4.430   0.513   4.525 -0.2898  0.0782  0.3651
 4255SOL    HW112584   4.429   0.458   4.608 -0.1144  0.2318  0.4706
 4255SOL    HW212585   4.386   0.601   4.542 -0.2771  0.0998  0.2895
 4256SOL     OW12586   0.498   3.726   2.504  0.3758 -0.1014 -0.5220
 4256SOL    HW112587   0.441   3.673   2.441 -1.5659  1.3058 -0.0463
 4256SOL    HW212588   0.556   3.789   2.452  0.2066 -0.3071 -0.9664
 4257SOL     OW12589   3.705   3.783   1.264  0.0984 -0.4476 -0.2448
 4257SOL    HW112590   3.613   3.766   1.230 -0.1308  1.1129 -0.4969
 4257SOL    HW212591   3.772   3.748   1.197 -0.2574 -2.4378  0.3805
 4258SOL     OW12592   3.951   4.287   1.001  0.2256 -0.0723 -0.0835
 4258SOL    HW112593   3.973   4.377   1.039  1.4825 -1.2406  2.1921
 4258SOL    HW212594   3.999   4.216   1.054  0.1875 -2.0309 -2.5081
 4259SOL     OW12595   1.047   3.332   2.299 -0.5375 -0.1771 -0.5267
 4259SOL    HW112596   1.083   3.297   2.385  1.8633  0.8043 -1.0571
 4259SOL    HW212597   0.997   3.416   2.316  1.1849  0.8305 -0.1752
 4260SOL     OW12598   1.727   2.285   3.844  0.3014 -0.1235 -0.0663
 4260SOL    HW112599   1.797   2.353   3.825  0.3876 -0.0014  0.6401
 4260SOL    HW212600   1.759   2.194   3.816  0.7880 -0.0844  0.3522
 4261SOL     OW12601   0.748   1.781   2.359  0.3800  0.3933  0.1656
 4261SOL    HW112602   0.744   1.786   2.459  0.4716 -0.4004  0.2146
 4261SOL    HW212603   0.776   1.689   2.331  1.1017  0.8306 -0.5778
 4262SOL     OW12604   4.701   4.986   2.499  0.0473 -0.5810 -0.0590
 4262SOL    HW112605   4.713   5.051   2.574  2.3732 -0.3059 -0.5820
 4262SOL    HW212606   4.636   5.023   2.433 -2.4173 -1.0317  1.9507
 4263SOL     OW12607   4.583   4.147   2.910  0.3205  0.3925  0.5171
 4263SOL    HW112608   4.612   4.199   2.829  2.2787 -0.6480  0.4889
 4263SOL    HW212609   4.663   4.112   2.957 -0.8371  0.2007  2.4292
 4264SOL     OW12610   0.660   4.570   0.527 -0.0109 -0.1695  0.2640
 4264SOL    HW112611   0.724   4.615   0.464  0.7850 -0.0227  1.1456
 4264SOL    HW212612   0.712   4.528   0.602 -1.0131  0.8372  1.5674
 4265SOL     OW12613   2.701   3.696   0.973 -0.0729 -0.0634  0.6408
 4265SOL    HW112614   2.647   3.780   0.983 -0.6223 -0.1908 -0.9728
 4265SOL    HW212615   2.772   3.711   0.904  0.3874 -0.6828  0.9658
 4266SOL     OW12616   1.321   0.453   4.370  0.4023  0.0057  0.2261
 4266SOL    HW112617   1.381   0.522   4.410 -1.1949  0.6153  1.6950
 4266SOL    HW212618   1.310   0.377   4.433 -0.2916 -0.1264 -0.0360
 4267SOL     OW12619   2.910   1.529   0.062 -0.1478 -0.5907  0.4812
 4267SOL    HW112620   3.004   1.554   0.042  0.3425 -2.3692  0.4455
 4267SOL    HW212621   2.891   1.544   0.160 -0.0569  0.3540  0.3710
 4268SOL     OW12622   2.436   0.878   0.168  0.0680 -0.4557  0.0176
 4268SOL    HW112623   2.493   0.849   0.091 -0.7372 -1.5995 -0.1818
 4268SOL    HW212624   2.427   0.978   0.168 -0.1670 -0.4459 -1.5717
 4269SOL     OW12625   2.032   1.950   0.322  0.0645  0.4488  0.4524
 4269SOL    HW112626   2.120   1.935   0.276 -1.3588 -1.2187 -1.9542
 4269SOL    HW212627   2.009   1.870   0.376  0.3720  1.2413  1.8062
 4270SOL     OW12628   4.622   4.329   0.193  0.2668  0.5409 -0.0002
 4270SOL    HW112629   4.656   4.394   0.261  1.5135  0.8622 -0.8997
 4270SOL    HW212630   4.602   4.377   0.108  0.7995 -0.1819 -0.5448
 4271SOL     OW12631   3.001   3.196   4.657  0.3546 -0.2811 -0.1759
 4271SOL    HW112632   3.037   3.103   4.650  0.4023 -0.4968  2.0477
 4271SOL    HW212633   2.933   3.200   4.730  1.3453  1.6930  0.7339
 4272SOL     OW12634   2.694   4.589   4.103 -0.3689 -0.4864 -0.3067
 4272SOL    HW112635   2.685   4.683   4.071 -0.3255 -0.4215 -0.1335
 4272SOL    HW212636   2.608   4.540   4.088 -0.2841 -0.5130 -0.6956
 4273SOL     OW12637   4.915   4.947   4.154 -0.0008  0.0166 -0.7472
 4273SOL    HW112638   5.010   4.945   4.185  0.8567 -0.9167 -3.1651
 4273SOL    HW212639   4.897   5.032   4.105 -0.6567  0.4978  0.2952
 4274SOL     OW12640   3.759   4.187   2.039 -0.3523 -0.0819 -0.4474
 4274SOL    HW112641   3.720   4.097   2.020  1.6928 -0.8192 -1.4784
 4274SOL    HW212642   3.822   4.212   1.965 -1.7341  2.7652 -0.8088
 4275SOL     OW12643   4.079   0.719   4.779  0.3274  0.0208 -0.1690
 4275SOL    HW112644   4.114   0.748   4.868  0.1736 -0.5227  0.0715
 4275SOL    HW212645   4.044   0.625   4.785  2.6428 -1.0010 -1.3865
 4276SOL     OW12646   4.538   4.543   1.511 -0.4506 -0.0937 -0.0713
 4276SOL    HW112647   4.543   4.643   1.513 -0.0359 -0.0699 -1.2173
 4276SOL    HW212648   4.630   4.505   1.503 -0.7373 -0.4333 -2.4245
 4277SOL     OW12649   1.672   0.977   4.340  0.7899 -0.0238 -0.0986
 4277SOL    HW112650   1.573   0.970   4.326  0.1995  3.9990  0.7838
 4277SOL    HW212651   1.711   1.037   4.271  2.7504 -1.7910 -0.6111
 4278SOL     OW12652   3.245   1.022   4.853  0.1769 -0.0441 -0.2171
 4278SOL    HW112653   3.219   1.033   4.757  0.5904  3.2821 -0.0356
 4278SOL    HW212654   3.344   1.034   4.862  0.0141  0.5985  0.7512
 4279SOL     OW12655   0.924   4.471   4.940 -0.1880  0.2776  0.2177
 4279SOL    HW112656   0.908   4.552   4.883 -0.2364  0.2970  0.2584
 4279SOL    HW212657   0.980   4.497   5.019  0.8086  0.0204 -0.4018
 4280SOL     OW12658   4.236   0.295   4.371 -0.3159 -0.0484 -0.0699
 4280SOL    HW112659   4.269   0.389   4.379  1.9375 -0.8230  0.4755
 4280SOL    HW212660   4.138   0.296   4.353  0.0209  2.4438 -2.4663
 4281SOL     OW12661   3.749   4.336   4.605 -0.1650  0.0457 -0.6969
 4281SOL    HW112662   3.723   4.411   4.544 -0.7728 -0.5202 -1.1379
 4281SOL    HW212663   3.684   4.329   4.681  0.3339  0.4571 -0.2201
 4282SOL     OW12664   2.123   0.357   0.261 -0.0981  0.4136  0.4712
 4282SOL    HW112665   2.216   0.363   0.296 -0.0060 -0.9615  0.5038
 4282SOL    HW212666   2.121   0.390   0.166  0.6724 -0.6801  0.0627
 4283SOL     OW12667   4.542   0.169   3.192 -0.7967  0.1796  0.4253
 4283SOL    HW112668   4.573   0.132   3.280  0.1908 -1.4372 -0.5615
 4283SOL    HW212669   4.610   0.234   3.158 -0.6207 -0.0542  0.3273
 4284SOL     OW12670   2.755   4.036   0.286 -0.2265 -0.0097  0.2780
 4284SOL    HW112671   2.774   4.110   0.221 -1.7794  1.0160  0.9289
 4284SOL    HW212672   2.658   4.011   0.281  0.6951 -3.9966 -1.9031
 4285SOL     OW12673   4.433   0.585   4.043 -0.4262 -0.0264  0.5547
 4285SOL    HW112674   4.334   0.595   4.036 -0.4825 -1.1256 -0.8598
 4285SOL    HW212675   4.457   0.549   4.133 -1.4479 -0.9732  0.4719
 4286SOL     OW12676   3.916   4.903   0.398  0.1700  0.0723  0.9791
 4286SOL    HW112677   3.997   4.858   0.361 -0.8432 -0.7656 -0.3406
 4286SOL    HW212678   3.918   5.000   0.377 -0.4961 -0.4135 -1.6885
 4287SOL     OW12679   3.261   4.213   4.554 -0.2817 -0.1912 -0.3185
 4287SOL    HW112680   3.293   4.144   4.489 -2.8733 -1.4379 -0.3953
 4287SOL    HW212681   3.275   4.180   4.647  0.3631  0.1431 -0.2835
 4288SOL     OW12682   2.079   2.135   3.907  0.2235  0.3498  0.0029
 4288SOL    HW112683   1.992   2.099   3.939  1.4271  0.1772  3.6305
 4288SOL    HW212684   2.106   2.212   3.965  2.8076 -0.0765 -0.5022
 4289SOL     OW12685   0.221   3.316   4.177  0.1447  0.4478  0.0936
 4289SOL    HW112686   0.190   3.243   4.238 -0.3673 -0.7345 -1.5001
 4289SOL    HW212687   0.317   3.335   4.194  0.0938 -0.0763  1.0374
 4290SOL     OW12688   4.557   0.780   2.932  1.2962 -0.1104 -0.0736
 4290SOL    HW112689   4.523   0.860   2.884  1.4370  0.0546  0.1004
 4290SOL    HW212690   4.550   0.794   3.031 -1.9524 -1.6656  0.0639
 4291SOL     OW12691   2.404   3.714   3.688  0.2529 -0.2447  0.1659
 4291SOL    HW112692   2.343   3.781   3.648  0.0985  1.9289  3.6319
 4291SOL    HW212693   2.494   3.720   3.645  1.0593  4.2218  1.9122
 4292SOL     OW12694   0.636   2.602   2.389  0.0938  0.2316 -0.4641
 4292SOL    HW112695   0.590   2.516   2.367 -2.0933  1.4980 -1.1713
 4292SOL    HW212696   0.718   2.611   2.334  0.6362 -1.5875 -0.0336
 4293SOL     OW12697   1.117   3.644   0.182 -0.2692 -0.0836  0.1126
 4293SOL    HW112698   1.096   3.547   0.184 -0.0244 -0.1617  3.0555
 4293SOL    HW212699   1.209   3.658   0.145 -0.4389 -0.8929 -0.6602
 4294SOL     OW12700   4.759   0.164   3.457  0.3826  0.0025  0.3494
 4294SOL    HW112701   4.758   0.079   3.405 -2.6531 -0.9115  1.7190
 4294SOL    HW212702   4.756   0.145   3.555 -1.0281  1.6260  0.6848
 4295SOL     OW12703   3.838   0.993   3.023 -0.5820  0.3216 -0.1195
 4295SOL    HW112704   3.901   1.003   3.100  0.7318 -0.8174 -1.0033
 4295SOL    HW212705   3.871   0.921   2.962 -1.8859  0.8244 -1.4698
 4296SOL     OW12706   3.698   2.766   1.368 -0.4798 -0.0286 -0.3525
 4296SOL    HW112707   3.765   2.695   1.392 -0.0703  0.0646 -1.1887
 4296SOL    HW212708   3.606   2.726   1.366 -0.3662 -0.3214  0.0777
 4297SOL     OW12709   2.500   3.143   0.289  0.1971 -0.0869 -0.2485
 4297SOL    HW112710   2.495   3.047   0.261 -0.6061  0.4379 -2.0439
 4297SOL    HW212711   2.462   3.201   0.216  0.1818  1.5592  1.0168
 4298SOL     OW12712   0.971   4.017   0.014  0.0527  0.3501  0.1163
 4298SOL    HW112713   1.000   3.931  -0.028 -0.1163  0.3620 -0.0241
 4298SOL    HW212714   0.992   4.093  -0.047  2.3933  0.6797  1.2038
 4299SOL     OW12715   4.600   2.946   3.944  0.5178 -0.0935 -0.2140
 4299SOL    HW112716   4.633   3.040   3.956  0.8943 -0.3309  0.6754
 4299SOL    HW212717   4.622   2.915   3.851  1.0783  0.4323 -0.2618
 4300SOL     OW12718   4.386   4.437   4.032  0.5098  0.2609 -0.3937
 4300SOL    HW112719   4.357   4.377   4.106 -0.5245  0.2141 -0.8199
 4300SOL    HW212720   4.412   4.382   3.953 -0.2151  0.3550 -0.7052
 4301SOL     OW12721   3.621   0.994   0.671 -0.4328 -0.0377  0.9259
 4301SOL    HW112722   3.581   1.083   0.647  3.0297  1.6516  0.7516
 4301SOL    HW212723   3.715   0.991   0.639  0.2279 -3.0240  2.7786
 4302SOL     OW12724   4.390   0.442   3.378  0.5410  0.1026  0.3994
 4302SOL    HW112725   4.405   0.479   3.286 -0.7428  0.2293  0.2228
 4302SOL    HW212726   4.468   0.464   3.436  1.1675  0.4147 -0.5327
 4303SOL     OW12727   3.669   3.499   4.599 -0.5202  0.5721  0.1063
 4303SOL    HW112728   3.576   3.476   4.630 -0.1255 -1.3071  0.0011
 4303SOL    HW212729   3.735   3.465   4.666  0.2319 -1.3015 -1.4943
 4304SOL     OW12730   4.283   3.992   4.067 -0.4228 -0.7292 -0.3667
 4304SOL    HW112731   4.281   4.053   4.146 -0.3634  2.3391 -2.5334
 4304SOL    HW212732   4.221   3.915   4.082 -0.0472 -0.5281  2.7863
 4305SOL     OW12733   4.501   0.128   4.397  0.2391  0.0262  0.2953
 4305SOL    HW112734   4.572   0.137   4.328  0.8051 -0.3088  0.8215
 4305SOL    HW212735   4.412   0.149   4.356  0.0860 -3.3118 -1.4377
 4306SOL     OW12736   1.377   2.645   3.845  0.3378 -0.3278 -0.2343
 4306SOL    HW112737   1.294   2.592   3.828 -0.0041 -0.0097  0.4340
 4306SOL    HW212738   1.455   2.597   3.804 -0.5611  1.0509 -3.9611
 4307SOL     OW12739   0.958   4.624   1.327  0.1029  0.0018 -0.0101
 4307SOL    HW112740   0.894   4.671   1.388  0.1031  1.4290 -1.0760
 4307SOL    HW212741   0.973   4.530   1.361 -2.0130 -0.1528  0.6272
 4308SOL     OW12742   2.134   0.259   3.930  1.2105  0.1625  0.2582
 4308SOL    HW112743   2.066   0.230   3.863  2.4299 -0.5213 -0.7312
 4308SOL    HW212744   2.223   0.268   3.885  2.1467 -0.6694  1.8381
 4309SOL     OW12745   3.138   2.705   3.295 -0.4112  0.6281 -0.0485
 4309SOL    HW112746   3.209   2.753   3.244 -0.1459  1.4742  1.0778
 4309SOL    HW212747   3.061   2.685   3.235  0.5207  0.2220 -1.1385
 4310SOL     OW12748   2.294   4.296   4.733 -0.2836 -0.3563  0.2685
 4310SOL    HW112749   2.313   4.245   4.817  0.9426  1.8627  1.4373
 4310SOL    HW212750   2.218   4.359   4.749  0.7768  1.0006  0.1878
 4311SOL     OW12751   4.330   0.199   3.520  0.1015 -0.3208 -0.3038
 4311SOL    HW112752   4.234   0.196   3.548  0.2175  0.6202  0.2676
 4311SOL    HW212753   4.343   0.273   3.453  0.6543  0.4744  0.6446
 4312SOL     OW12754   3.213   0.057   4.401  0.6597 -0.1005  0.9427
 4312SOL    HW112755   3.250  -0.035   4.389  0.2094 -0.3743  1.5694
 4312SOL    HW212756   3.224   0.109   4.316  0.4037 -0.9187  0.3907
 4313SOL     OW12757   0.951   3.581   2.348  0.6074  0.4027 -0.4547
 4313SOL    HW112758   1.004   3.664   2.330 -0.3034  1.5495  1.6903
 4313SOL    HW212759   0.860   3.590   2.308  0.2490  0.8070  0.4233
 4314SOL     OW12760   4.313   4.422   4.754 -0.5556 -0.1042  0.2081
 4314SOL    HW112761   4.268   4.378   4.832  1.2405 -0.3955  1.1363
 4314SOL    HW212762   4.323   4.520   4.772 -2.1257  0.2688 -0.6849
 4315SOL     OW12763   4.388   1.767   3.647 -0.4287 -0.1463 -0.1046
 4315SOL    HW112764   4.444   1.849   3.637  0.4114 -0.6957 -0.0277
 4315SOL    HW212765   4.340   1.770   3.735 -0.2083  0.1427  0.0062
 4316SOL     OW12766   0.075   3.630   0.369  0.0727 -0.0839  0.6822
 4316SOL    HW112767   0.108   3.676   0.452 -0.3279  1.0689  0.2169
 4316SOL    HW212768   0.068   3.695   0.295 -0.2129 -0.9760 -0.0966
 4317SOL     OW12769   2.354   1.451   3.987  0.2742  0.7254 -0.5736
 4317SOL    HW112770   2.454   1.446   3.992  0.1900 -1.9255  0.0127
 4317SOL    HW212771   2.327   1.511   3.912  2.3476 -0.2832 -2.2296
 4318SOL     OW12772   1.044   3.994   4.382  0.5881  0.1437 -0.0618
 4318SOL    HW112773   0.971   4.012   4.317 -0.7321 -2.2216  0.6393
 4318SOL    HW212774   1.029   4.048   4.465  0.1191  0.2953 -0.2421
 4319SOL     OW12775   3.078   2.956   0.032 -0.3809 -0.1209 -0.4171
 4319SOL    HW112776   3.135   3.035   0.013  0.1051 -0.2824  0.3070
 4319SOL    HW212777   3.136   2.878   0.056 -0.8456  0.4575  3.2795
 4320SOL     OW12778   1.056   0.118   4.613  0.3207  0.1161  0.2716
 4320SOL    HW112779   1.098   0.038   4.570  0.4064 -0.7270  1.8316
 4320SOL    HW212780   1.012   0.175   4.543  2.0133 -0.2031 -1.1103
 4321SOL     OW12781   4.228   1.668   5.035  0.1093  0.1663  0.4458
 4321SOL    HW112782   4.206   1.727   5.113  0.7505 -0.9360  1.4819
 4321SOL    HW212783   4.157   1.598   5.025  0.8889 -0.7242  1.0901
 4322SOL     OW12784   1.867   4.084   4.096  0.0132 -0.2827  0.0385
 4322SOL    HW112785   1.799   4.151   4.066  0.0470 -0.6988 -1.0060
 4322SOL    HW212786   1.861   4.002   4.039 -1.1035 -1.8589  2.2484
 4323SOL     OW12787   3.738   0.318   3.994 -0.0018 -0.0058  0.5394
 4323SOL    HW112788   3.707   0.356   3.907 -0.6583  0.6645  1.0413
 4323SOL    HW212789   3.672   0.250   4.026 -1.1806  1.6120  1.7395
 4324SOL     OW12790   4.250   3.499   4.112  0.6477  0.4394 -0.8173
 4324SOL    HW112791   4.307   3.538   4.040  0.6540  1.4366 -0.2940
 4324SOL    HW212792   4.294   3.417   4.148  2.6538  2.0556  0.6928
 4325SOL     OW12793   3.548   2.674   0.130 -0.2443 -0.4144  0.3877
 4325SOL    HW112794   3.496   2.598   0.092  0.4035  0.2286 -1.9442
 4325SOL    HW212795   3.549   2.750   0.064 -0.1722  1.3215  2.2808
 4326SOL     OW12796   4.846   4.473   3.007  0.5842  0.2682  0.0393
 4326SOL    HW112797   4.895   4.388   2.987  0.4168  0.0124  0.6944
 4326SOL    HW212798   4.858   4.537   2.931  2.9376  0.6882  0.7068
 4327SOL     OW12799   1.679   0.251   4.513  0.2292 -0.6828 -0.4137
 4327SOL    HW112800   1.707   0.344   4.487 -1.2503 -0.3608 -0.9775
 4327SOL    HW212801   1.681   0.242   4.612 -0.2567  0.1810 -0.3162
 4328SOL     OW12802   1.679   2.501   3.250  0.6641  0.2038  0.2330
 4328SOL    HW112803   1.720   2.412   3.232  2.4624  0.6228  1.9072
 4328SOL    HW212804   1.583   2.500   3.220  0.2142 -2.7262  1.4137
 4329SOL     OW12805   4.421   1.049   2.861  0.0045 -0.2616  0.2711
 4329SOL    HW112806   4.479   1.063   2.942 -1.5090  0.0040  1.3393
 4329SOL    HW212807   4.325   1.056   2.887 -0.6050 -2.6053 -1.0855
 4330SOL     OW12808   4.068   3.881   2.909  0.6495 -0.6139  0.6731
 4330SOL    HW112809   4.052   3.904   2.813 -0.2205  1.4396  1.2485
 4330SOL    HW212810   4.135   3.807   2.916  0.9328 -0.6057 -1.4875
 4331SOL     OW12811   4.920   0.822   0.328  0.7242 -0.4192 -0.2348
 4331SOL    HW112812   4.879   0.732   0.346 -0.7663  0.3457  0.3710
 4331SOL    HW212813   4.848   0.887   0.305  1.8778  0.4309 -1.5590
 4332SOL     OW12814   2.600   4.910   0.432  0.1215 -0.2209 -0.3108
 4332SOL    HW112815   2.505   4.941   0.425 -0.6129 -1.9988  0.9771
 4332SOL    HW212816   2.606   4.839   0.502  2.1118 -1.3106 -1.5242
 4333SOL     OW12817   2.723   4.790   4.556  0.0934  0.1963 -0.2935
 4333SOL    HW112818   2.742   4.837   4.642  0.4941  0.1734 -0.3674
 4333SOL    HW212819   2.800   4.729   4.533 -0.3893 -0.4426 -0.2309
 4334SOL     OW12820   1.892   3.599   3.835 -0.2370  0.3870 -0.3474
 4334SOL    HW112821   1.911   3.581   3.739 -0.9247  0.9781 -0.6012
 4334SOL    HW212822   1.904   3.514   3.887 -0.6097 -0.1300 -1.0748
 4335SOL     OW12823   4.156   4.301   4.203 -0.4333 -0.5168  0.5373
 4335SOL    HW112824   4.163   4.401   4.201  1.3408 -0.6255  0.0352
 4335SOL    HW212825   4.064   4.274   4.175 -0.5143  0.9394 -0.7739
 4336SOL     OW12826   0.157   2.216   3.077  0.5538  0.4688  0.3725
 4336SOL    HW112827   0.093   2.217   3.153 -0.2701 -1.4422 -0.2419
 4336SOL    HW212828   0.225   2.144   3.091  0.9363  0.6911 -0.2608
 4337SOL     OW12829   3.688   3.997   3.650 -0.5220 -0.2647  0.2942
 4337SOL    HW112830   3.674   4.095   3.635 -1.0933 -0.3914 -0.0394
 4337SOL    HW212831   3.735   3.957   3.572 -0.8676 -0.3742  0.1391
 4338SOL     OW12832   0.710   3.322   3.201 -0.4131  0.1197 -0.2021
 4338SOL    HW112833   0.696   3.360   3.292  0.0701 -2.7805  1.2307
 4338SOL    HW212834   0.623   3.315   3.153 -0.8912  0.4139  0.6081
 4339SOL     OW12835   3.017   3.483   0.470 -0.0820  0.0538  0.1099
 4339SOL    HW112836   3.069   3.563   0.443  0.3297 -0.0135  0.6815
 4339SOL    HW212837   3.062   3.400   0.438  0.1542 -0.0031  0.5782
 4340SOL     OW12838   3.568   2.136   3.393 -0.3499  0.1570  0.4470
 4340SOL    HW112839   3.557   2.118   3.295 -0.8543  0.4991  0.4400
 4340SOL    HW212840   3.480   2.128   3.440 -0.0471 -0.3518  0.9335
 4341SOL     OW12841   4.853   0.140   4.025 -0.5608  0.1645  0.6989
 4341SOL    HW112842   4.779   0.125   3.960 -0.1310  0.1354  0.2134
 4341SOL    HW212843   4.920   0.203   3.986  0.3220 -0.8028  0.6104
 4342SOL     OW12844   0.639   1.279   1.997 -0.1591  0.0234 -0.4194
 4342SOL    HW112845   0.634   1.220   1.916  0.1792  1.0800 -1.2310
 4342SOL    HW212846   0.579   1.357   1.984  1.2785  1.1594 -0.4662
 4343SOL     OW12847   4.952   4.219   2.872 -0.0227 -0.0928 -0.1256
 4343SOL    HW112848   5.039   4.230   2.825  0.4624 -1.5055  0.3940
 4343SOL    HW212849   4.910   4.133   2.845 -1.6908  0.9637 -1.0141
 4344SOL     OW12850   2.495   3.972   0.313 -0.0279 -0.3397  0.3243
 4344SOL    HW112851   2.444   4.057   0.300  1.2032  0.4980  0.7395
 4344SOL    HW212852   2.455   3.921   0.389 -0.8426 -0.1952  0.0087
 4345CL      CL12853   0.739   0.800   2.703  0.1044  0.3117 -0.1066
   5.03697   5.03697   5.03697
