Protein in water
12853
  117GLY      N    1   1.282   2.971   2.899  0.7207  0.1694  0.3629
  117GLY     H1    2   1.377   3.001   2.880  0.7875  0.2805  0.8525
  117GLY     H2    3   1.232   2.949   2.814 -2.5050  1.7897  1.6835
  117GLY     H3    4   1.240   3.046   2.952  2.4513 -0.7828  3.3622
  117GLY     CA    5   1.276   2.851   2.982  0.0381  0.0704  0.4843
  117GLY    HA1    6   1.309   2.866   3.085  0.3473  0.7340  0.2965
  117GLY    HA2    7   1.172   2.824   2.968  0.5737 -1.0532 -1.7576
  117GLY      C    8   1.343   2.723   2.926 -0.5090 -0.0910  0.0976
  117GLY      O    9   1.354   2.625   3.002 -0.5105  0.2435  1.0407
  118THR      N   10   1.389   2.721   2.800 -0.1922 -0.3720 -0.4964
  118THR      H   11   1.385   2.812   2.758  0.3093  0.1841  0.6276
  118THR     CA   12   1.455   2.608   2.733 -0.2006  0.3638 -0.1482
  118THR     HA   13   1.397   2.519   2.758  1.9547 -0.7230  1.2463
  118THR     CB   14   1.463   2.626   2.580  0.3441  1.2685 -0.0656
  118THR     HB   15   1.495   2.537   2.526 -0.9326 -1.0737  2.7219
  118THR    OG1   16   1.549   2.735   2.542 -0.3196  0.2832 -0.2214
  118THR    HG1   17   1.519   2.814   2.584 -1.4256 -1.3421  2.3355
  118THR    CG2   18   1.322   2.650   2.518 -0.3848 -0.2152 -0.0747
  118THR   HG21   19   1.276   2.746   2.539 -2.1563 -1.1526  0.5548
  118THR   HG22   20   1.333   2.646   2.409 -0.0477  3.2694 -0.2800
  118THR   HG23   21   1.242   2.582   2.549 -1.1484 -0.2245 -1.9138
  118THR      C   22   1.590   2.596   2.797 -0.3216  0.0737 -0.0524
  118THR      O   23   1.642   2.687   2.862  0.4552 -0.2395  0.0028
  119ASP      N   24   1.651   2.478   2.790  0.0072 -0.1225 -0.1491
  119ASP      H   25   1.602   2.404   2.741 -0.2051 -0.4766  0.5779
  119ASP     CA   26   1.792   2.454   2.819 -0.0921 -0.1611  0.0199
  119ASP     HA   27   1.808   2.498   2.918 -0.8547  0.7486 -0.2412
  119ASP     CB   28   1.808   2.304   2.825 -0.2940  0.5723 -0.3370
  119ASP    HB1   29   1.747   2.257   2.903  1.3118 -0.7612  0.1552
  119ASP    HB2   30   1.791   2.258   2.728  0.3724 -0.5810  0.0808
  119ASP     CG   31   1.949   2.260   2.845 -0.0819 -0.0066 -0.2579
  119ASP    OD1   32   2.030   2.322   2.922 -0.4721  0.1833 -0.7027
  119ASP    OD2   33   1.980   2.150   2.795 -0.1632 -0.2768  0.6413
  119ASP      C   34   1.884   2.527   2.720 -0.5500 -0.2154 -0.3379
  119ASP      O   35   1.928   2.467   2.626 -0.1714  0.2136 -0.0701
  120VAL      N   36   1.906   2.659   2.738  0.4884  0.4055 -0.3199
  120VAL      H   37   1.870   2.694   2.825  0.1730  0.3136 -0.4124
  120VAL     CA   38   1.988   2.744   2.652  0.0409 -0.1375 -0.7298
  120VAL     HA   39   1.964   2.728   2.547 -1.2790 -3.8283 -0.0358
  120VAL     CB   40   1.953   2.891   2.688  0.1620 -0.1434  0.4855
  120VAL     HB   41   2.028   2.950   2.636 -1.1979  0.4019 -0.9200
  120VAL    CG1   42   1.818   2.935   2.625  0.0512 -0.2365  0.1921
  120VAL   HG11   43   1.737   2.882   2.676 -0.5077 -0.2451 -0.6874
  120VAL   HG12   44   1.799   3.042   2.618 -0.3112 -0.3777 -1.0707
  120VAL   HG13   45   1.804   2.915   2.519  0.5789  1.6187 -0.2783
  120VAL    CG2   46   1.973   2.930   2.833  0.7481  0.0910 -0.5502
  120VAL   HG21   47   1.961   3.036   2.856 -0.4613  0.0389 -0.8777
  120VAL   HG22   48   1.912   2.870   2.900  3.0634 -2.8370 -0.8680
  120VAL   HG23   49   2.075   2.901   2.859 -0.1199 -2.8726 -0.1122
  120VAL      C   50   2.141   2.719   2.672  0.2128  0.0438 -0.2054
  120VAL      O   51   2.220   2.773   2.598  0.1071 -0.4048  0.0970
  121GLN      N   52   2.183   2.627   2.757  0.4235  0.1095 -0.2170
  121GLN      H   53   2.114   2.574   2.808  2.1152 -0.5528  1.5408
  121GLN     CA   54   2.323   2.580   2.767 -0.0280 -0.3414 -0.5400
  121GLN     HA   55   2.389   2.665   2.748  1.8737 -1.5523  0.2622
  121GLN     CB   56   2.343   2.523   2.910 -0.5748 -0.3748  0.0718
  121GLN    HB1   57   2.288   2.592   2.975 -0.9679 -0.3963 -0.2339
  121GLN    HB2   58   2.288   2.430   2.923 -0.4251 -0.4000  0.5538
  121GLN     CG   59   2.489   2.499   2.947 -0.5065  0.0893 -0.0562
  121GLN    HG1   60   2.543   2.424   2.889 -0.5039 -1.2464  1.6018
  121GLN    HG2   61   2.547   2.591   2.941 -1.6527  0.8805  0.6891
  121GLN     CD   62   2.502   2.463   3.094 -0.1486  0.7818 -0.2471
  121GLN    OE1   63   2.606   2.461   3.155  0.3302 -0.3353 -0.2074
  121GLN    NE2   64   2.397   2.436   3.168  0.0633 -0.4600  0.4225
  121GLN   HE21   65   2.305   2.445   3.127  0.6952 -1.3320 -1.2666
  121GLN   HE22   66   2.414   2.426   3.267  0.0737  1.2994  0.6409
  121GLN      C   67   2.356   2.479   2.655  0.1374 -0.2696 -0.3352
  121GLN      O   68   2.471   2.450   2.631 -0.3885  0.3054  0.0666
  122ALA      N   69   2.253   2.426   2.587 -0.0380 -0.0577  0.5020
  122ALA      H   70   2.161   2.455   2.619 -0.3780  1.6062 -1.7219
  122ALA     CA   71   2.250   2.353   2.463  0.4452 -0.4647 -0.5722
  122ALA     HA   72   2.296   2.258   2.489  1.4121  0.2603  0.4596
  122ALA     CB   73   2.109   2.331   2.408  0.2748  1.0882  0.1792
  122ALA    HB1   74   2.102   2.253   2.331  0.8107  1.5735 -0.3752
  122ALA    HB2   75   2.043   2.292   2.485  0.2216 -0.6272 -0.6853
  122ALA    HB3   76   2.071   2.416   2.352 -0.8408 -0.5974 -1.8151
  122ALA      C   77   2.328   2.417   2.351  0.1905 -0.3229  0.2048
  122ALA      O   78   2.405   2.355   2.284  0.0640  0.6243  0.9466
  123TRP      N   79   2.315   2.549   2.348 -0.1825  0.1690 -0.0111
  123TRP      H   80   2.242   2.582   2.410 -1.5660 -0.9649 -0.9713
  123TRP     CA   81   2.381   2.641   2.254  0.1963  0.3821  0.6448
  123TRP     HA   82   2.373   2.590   2.158 -0.3130  0.6597  0.5412
  123TRP     CB   83   2.319   2.780   2.244 -0.1038 -0.9690 -0.4882
  123TRP    HB1   84   2.330   2.837   2.336  2.5136 -0.6345 -0.9336
  123TRP    HB2   85   2.370   2.845   2.173 -1.1382 -0.4399 -0.7665
  123TRP     CG   86   2.175   2.778   2.205 -0.7604 -0.2746 -0.1196
  123TRP    CD1   87   2.073   2.796   2.285 -0.3897 -0.0553 -0.8306
  123TRP    HD1   88   2.067   2.826   2.388  0.3460 -2.4184 -0.0272
  123TRP    CD2   89   2.124   2.736   2.076 -0.7986 -0.3417  0.3730
  123TRP    NE1   90   1.961   2.753   2.218  0.3058 -0.8785  0.1386
  123TRP    HE1   91   1.870   2.750   2.261 -0.6392 -0.9569 -1.7579
  123TRP    CE2   92   1.985   2.707   2.093 -0.2821  0.1236  0.2493
  123TRP    CE3   93   2.188   2.703   1.952  0.7880  0.0073 -0.6099
  123TRP    HE3   94   2.293   2.723   1.934  0.8106 -0.2649 -0.7913
  123TRP    CZ2   95   1.901   2.669   1.984  0.1380 -0.6012  0.2812
  123TRP    HZ2   96   1.794   2.653   1.985  0.2017 -1.1174 -0.2775
  123TRP    CZ3   97   2.109   2.653   1.853  0.3460 -0.0876 -0.3921
  123TRP    HZ3   98   2.157   2.629   1.760 -0.3350 -2.4742 -0.1939
  123TRP    CH2   99   1.972   2.633   1.871 -0.0108  0.0375  0.0587
  123TRP    HH2  100   1.908   2.595   1.793 -2.2938  1.0617  1.3557
  123TRP      C  101   2.535   2.649   2.263  0.0629 -1.6498  0.8541
  123TRP      O  102   2.601   2.715   2.182  0.6390  0.6669  0.1646
  124ILE      N  103   2.593   2.609   2.374  0.2570  0.2142 -0.2511
  124ILE      H  104   2.526   2.587   2.447  0.5372  2.5567  0.7944
  124ILE     CA  105   2.730   2.613   2.416 -0.0898  0.0077 -0.3731
  124ILE     HA  106   2.789   2.644   2.330 -0.1122 -0.8703 -0.7154
  124ILE     CB  107   2.759   2.716   2.535 -0.4303  0.2546  0.3561
  124ILE     HB  108   2.866   2.729   2.546 -0.0586 -0.3804 -1.8885
  124ILE    CG1  109   2.707   2.663   2.665 -1.0557 -0.0371  0.1727
  124ILE   HG11  110   2.598   2.662   2.665 -1.0662  0.6793  1.4165
  124ILE   HG12  111   2.740   2.560   2.681  0.6398  0.7222  1.8149
  124ILE    CG2  112   2.705   2.848   2.492 -0.1399  0.8759  0.1436
  124ILE   HG21  113   2.738   2.927   2.560 -0.3895  1.2930 -0.2138
  124ILE   HG22  114   2.743   2.878   2.394 -1.1937  1.1177 -0.2037
  124ILE   HG23  115   2.596   2.853   2.490 -0.2170 -0.4450  0.5050
  124ILE     CD  116   2.763   2.743   2.788  0.1536  0.1609  1.1157
  124ILE    HD1  117   2.722   2.844   2.792  1.1850  0.8514 -2.3367
  124ILE    HD2  118   2.752   2.704   2.889  0.4816 -0.9051  0.7481
  124ILE    HD3  119   2.870   2.766   2.778  0.4175 -1.3104  0.2872
  124ILE      C  120   2.790   2.472   2.442  0.5606 -0.0545 -0.2061
  124ILE      O  121   2.912   2.465   2.457 -0.2907 -0.2691  0.2572
  125ARG      N  122   2.711   2.367   2.462 -0.2511  0.2049  0.2126
  125ARG      H  123   2.614   2.385   2.480 -0.2657 -0.0853  0.4249
  125ARG     CA  124   2.763   2.231   2.482  0.3674  0.2028 -0.4276
  125ARG     HA  125   2.845   2.241   2.554 -0.5586  0.0203  0.6877
  125ARG     CB  126   2.639   2.141   2.528 -0.6367  0.1920  0.0489
  125ARG    HB1  127   2.550   2.184   2.481 -0.1462 -0.0644 -1.1326
  125ARG    HB2  128   2.652   2.039   2.493  1.0520 -0.3738  2.1131
  125ARG     CG  129   2.615   2.141   2.674 -0.3772 -0.3380  0.3320
  125ARG    HG1  130   2.704   2.104   2.725 -0.5471 -1.7668 -0.3462
  125ARG    HG2  131   2.593   2.244   2.701  0.6319  0.4463 -1.6584
  125ARG     CD  132   2.501   2.045   2.720  0.0476  0.0920  0.4855
  125ARG    HD1  133   2.428   2.036   2.640  1.0958  0.9436 -0.5969
  125ARG    HD2  134   2.537   1.947   2.748 -3.5609 -1.3867  0.4572
  125ARG     NE  135   2.439   2.106   2.838 -0.2538 -0.6008 -0.2777
  125ARG     HE  136   2.502   2.093   2.916 -0.2884  1.4866  0.1580
  125ARG     CZ  137   2.311   2.128   2.848 -0.0150 -0.5740 -0.4808
  125ARG    NH1  138   2.224   2.105   2.746  0.2887 -0.6753 -0.3292
  125ARG   HH11  139   2.249   2.062   2.658  0.1298 -1.8400  0.1790
  125ARG   HH12  140   2.124   2.122   2.750  0.2440 -1.2470  1.4885
  125ARG    NH2  141   2.260   2.178   2.964  0.8639  0.0409  0.2376
  125ARG   HH21  142   2.310   2.181   3.053  1.5154  2.0003 -0.1354
  125ARG   HH22  143   2.167   2.216   2.964 -0.1760 -2.3137 -0.4446
  125ARG      C  144   2.822   2.173   2.350  0.0625  1.0076  0.2790
  125ARG      O  145   2.764   2.187   2.239 -0.1048 -0.7009 -0.1041
  126GLY      N  146   2.943   2.120   2.361  0.8155  0.4170 -0.1336
  126GLY      H  147   2.991   2.117   2.450  0.9490  1.3120 -0.1607
  126GLY     CA  148   3.022   2.077   2.245 -0.1129  0.0254  0.0257
  126GLY    HA1  149   3.065   1.981   2.272 -0.9492 -0.0336  1.2336
  126GLY    HA2  150   2.978   2.068   2.146  1.1835  0.0885 -0.5703
  126GLY      C  151   3.137   2.175   2.216  0.2123 -0.1264 -0.0716
  126GLY      O  152   3.219   2.145   2.126  0.0506  0.0571 -0.2183
  127CYS      N  153   3.136   2.293   2.278  0.2881  0.1989  0.2350
  127CYS      H  154   3.063   2.313   2.343  1.6625 -0.6782  2.1422
  127CYS     CA  155   3.232   2.400   2.237  0.4759 -0.3063  0.8872
  127CYS     HA  156   3.263   2.383   2.134 -2.7712 -2.2748  0.0928
  127CYS     CB  157   3.145   2.532   2.241  0.1694  0.1875 -0.5576
  127CYS    HB1  158   3.110   2.544   2.343 -0.8694 -2.8694 -0.4630
  127CYS    HB2  159   3.199   2.620   2.207 -0.2707  0.7957  0.2817
  127CYS     SG  160   3.006   2.511   2.119  0.4117 -0.4172 -0.2627
  127CYS     HG  161   3.090   2.506   2.016  0.4751  0.3866 -0.2574
  127CYS      C  162   3.344   2.423   2.338  0.0263 -0.3677  0.9746
  127CYS      O  163   3.317   2.409   2.460  0.1778  0.6865 -0.1769
  128ARG      N  164   3.464   2.454   2.292 -0.8988  0.4039 -0.3640
  128ARG      H  165   3.469   2.470   2.192 -4.1292 -0.7378 -0.8260
  128ARG     CA  166   3.572   2.476   2.385 -0.3774 -0.0796  1.0972
  128ARG     HA  167   3.547   2.423   2.477 -1.2357  0.2005  1.0338
  128ARG     CB  168   3.703   2.431   2.327  0.7856 -0.5554  0.0193
  128ARG    HB1  169   3.703   2.457   2.221 -2.5119  1.0645  0.2770
  128ARG    HB2  170   3.787   2.491   2.363 -1.5917  1.5989  2.4452
  128ARG     CG  171   3.739   2.279   2.347 -0.5229 -0.8915  0.7132
  128ARG    HG1  172   3.655   2.213   2.326 -0.7978 -0.1609 -0.5614
  128ARG    HG2  173   3.803   2.248   2.265  1.2559  2.3207  0.6946
  128ARG     CD  174   3.815   2.255   2.480  0.1828  0.2594  0.5530
  128ARG    HD1  175   3.762   2.278   2.573  0.2317 -1.2390  0.9858
  128ARG    HD2  176   3.830   2.148   2.493 -1.6966 -0.2363 -0.8676
  128ARG     NE  177   3.952   2.314   2.480 -0.3311 -0.3898  0.2150
  128ARG     HE  178   4.002   2.273   2.402  0.5946 -0.3849  0.8032
  128ARG     CZ  179   3.987   2.433   2.535 -0.2215 -0.2632  0.1871
  128ARG    NH1  180   3.906   2.507   2.608 -0.6086  0.6934 -0.5689
  128ARG   HH11  181   3.823   2.462   2.644  0.7512 -1.0233  0.6101
  128ARG   HH12  182   3.924   2.600   2.642  0.0524  0.1169  0.7836
  128ARG    NH2  183   4.109   2.478   2.524 -0.1695  0.1730 -0.0638
  128ARG   HH21  184   4.183   2.411   2.507  0.0314  0.4416 -0.2557
  128ARG   HH22  185   4.142   2.572   2.536  0.7414 -0.3356  1.8025
  128ARG      C  186   3.583   2.625   2.420  0.4584 -0.0322  0.5267
  128ARG      O  187   3.652   2.701   2.350  0.5700 -0.3798 -0.2171
  129LEU      N  188   3.513   2.667   2.521  0.4410 -0.2232  0.2740
  129LEU      H  189   3.472   2.598   2.583 -1.6365 -1.2746 -2.1096
  129LEU     CA  190   3.524   2.811   2.566  0.2579  0.6975 -0.2086
  129LEU     HA  191   3.557   2.883   2.491  0.3084  0.9922  0.0977
  129LEU     CB  192   3.383   2.838   2.623  0.2787 -0.0669 -0.3611
  129LEU    HB1  193   3.343   2.751   2.676 -1.6271  1.8377  1.5396
  129LEU    HB2  194   3.397   2.916   2.697 -0.5090 -1.5601  1.4246
  129LEU     CG  195   3.272   2.877   2.523  0.0234  0.2095 -0.0100
  129LEU     HG  196   3.283   2.983   2.498 -0.6851  0.1111 -0.7803
  129LEU    CD1  197   3.283   2.804   2.383 -0.1326 -0.0515  0.1691
  129LEU   HD11  198   3.281   2.696   2.397  1.7073  0.0653  1.6368
  129LEU   HD12  199   3.208   2.838   2.311 -1.3688 -0.3074  1.2956
  129LEU   HD13  200   3.379   2.827   2.337  1.2686 -3.6735  0.9177
  129LEU    CD2  201   3.131   2.879   2.580 -0.4976  0.0918 -0.2138
  129LEU   HD21  202   3.122   2.788   2.640  1.5341 -0.0368 -0.0327
  129LEU   HD22  203   3.123   2.952   2.659 -0.2345 -0.0955 -0.0134
  129LEU   HD23  204   3.052   2.891   2.505 -0.6804 -0.7086 -0.1671
  129LEU      C  205   3.639   2.820   2.668 -0.2711 -0.1644 -0.6346
  129LEU     O1  206   3.633   2.741   2.766 -0.1993 -0.4046 -0.8750
  129LEU     O2  207   3.733   2.895   2.646 -0.2132  0.1849 -0.0991
  130SOL     OW  208   0.366   0.426   4.459  0.0150 -0.1951 -0.1123
  130SOL    HW1  209   0.455   0.431   4.415 -0.0352 -0.4166 -0.2419
  130SOL    HW2  210   0.374   0.373   4.544 -0.1451 -0.9082 -0.5278
  131SOL     OW  211   4.888   0.994   1.402 -0.0682  0.1515  0.3013
  131SOL    HW1  212   4.852   1.025   1.314 -0.6188 -0.8147  0.1679
  131SOL    HW2  213   4.966   0.933   1.386  0.0867  0.2940  0.5042
  132SOL     OW  214   0.441   0.329   4.755  0.1704 -0.2437  0.2980
  132SOL    HW1  215   0.520   0.307   4.812  0.0722 -0.5268  0.3280
  132SOL    HW2  216   0.369   0.367   4.813  0.3064  0.0707  0.2609
  133SOL     OW  217   4.701   1.781   2.751  0.6222 -0.3418  0.1836
  133SOL    HW1  218   4.685   1.841   2.673 -2.6293  1.0602  1.7658
  133SOL    HW2  219   4.728   1.690   2.718  2.2143  0.9437 -2.3747
  134SOL     OW  220   1.525   0.982   1.113 -0.0484 -0.0437 -0.0215
  134SOL    HW1  221   1.596   0.915   1.092 -0.3751 -0.5439  0.4448
  134SOL    HW2  222   1.447   0.970   1.051  0.4577  0.8153 -0.8464
  135SOL     OW  223   0.831   5.070   2.005  0.4284  0.1497 -0.0587
  135SOL    HW1  224   0.821   5.169   1.999  0.8856  0.1506 -0.9237
  135SOL    HW2  225   0.749   5.027   1.966 -1.5272  0.1410  3.6123
  136SOL     OW  226   1.903   3.906   0.818 -0.0767  0.3138  0.1672
  136SOL    HW1  227   1.930   3.944   0.906 -1.1582  0.3690  0.4801
  136SOL    HW2  228   1.890   3.979   0.752 -0.3233  0.3491  0.2555
  137SOL     OW  229   4.956   0.365   0.520  0.1401 -0.2694 -0.2199
  137SOL    HW1  230   4.954   0.396   0.425 -1.6363  0.8912  0.1491
  137SOL    HW2  231   5.016   0.424   0.573 -1.7115  1.4580  0.0758
  138SOL     OW  232   0.755   0.925   1.637  0.0107 -0.4462 -0.0102
  138SOL    HW1  233   0.705   0.852   1.591 -1.1416  0.6393 -0.5273
  138SOL    HW2  234   0.761   0.904   1.735 -0.5450 -1.0802 -0.1038
  139SOL     OW  235   5.056   4.446   0.187 -0.0362  0.1172  0.1609
  139SOL    HW1  236   5.034   4.504   0.109 -0.4360 -1.7279 -1.1675
  139SOL    HW2  237   5.026   4.352   0.168  1.6053 -0.7813  1.7288
  140SOL     OW  238   4.719   1.589   2.445 -0.1237  0.2605 -0.3513
  140SOL    HW1  239   4.625   1.555   2.439 -0.9736  2.4382 -0.4367
  140SOL    HW2  240   4.723   1.682   2.407  1.8571  0.5949  0.5594
  141SOL     OW  241   3.889   0.785   1.053 -0.6714  0.8700 -0.3220
  141SOL    HW1  242   3.954   0.817   0.983 -0.7929  3.5438  0.6903
  141SOL    HW2  243   3.938   0.765   1.137 -0.8560  0.1603 -0.3731
  142SOL     OW  244   1.171   0.300   4.939 -0.4556 -0.4719 -0.2149
  142SOL    HW1  245   1.259   0.313   4.892 -0.0391 -0.7066  0.4819
  142SOL    HW2  246   1.113   0.380   4.924  0.2086  0.0609  0.0089
  143SOL     OW  247   1.140   4.084   0.362  0.1514  0.1482  0.6214
  143SOL    HW1  248   1.104   4.161   0.414 -0.0106 -1.0863  2.4189
  143SOL    HW2  249   1.237   4.101   0.341  0.2039  0.7120  1.2772
  144SOL     OW  250   1.700   0.513   0.911  0.2438  0.1091  0.7325
  144SOL    HW1  251   1.661   0.522   0.819 -0.0119 -1.3571  0.6723
  144SOL    HW2  252   1.705   0.416   0.935 -0.2723  0.5057  2.5267
  145SOL     OW  253   4.166   0.877   0.955 -0.0813 -0.4094  0.5125
  145SOL    HW1  254   4.189   0.895   1.051  0.1192 -0.3287  0.4499
  145SOL    HW2  255   4.233   0.922   0.896 -0.6639  0.2196  0.3170
  146SOL     OW  256   1.220   0.205   0.346 -0.4142 -0.3647  0.3372
  146SOL    HW1  257   1.249   0.300   0.333 -2.3052  0.4660  1.7682
  146SOL    HW2  258   1.285   0.144   0.300  0.0538  1.6603 -1.8788
  147SOL     OW  259   0.363   0.538   4.993  0.6686 -0.0519  0.0914
  147SOL    HW1  260   0.449   0.539   4.944  1.1576  1.9100  0.9062
  147SOL    HW2  261   0.328   0.631   5.003 -1.2812 -0.7384  0.2702
  148SOL     OW  262   1.169   0.527   1.227  0.2667 -0.5257 -0.1766
  148SOL    HW1  263   1.198   0.617   1.261 -1.4967 -0.1846  0.5288
  148SOL    HW2  264   1.167   0.462   1.303 -1.3482 -0.3831 -0.0726
  149SOL     OW  265   0.843   1.936   0.220  0.2413  0.9452  0.3863
  149SOL    HW1  266   0.769   1.963   0.159  0.0847 -1.2732 -0.4825
  149SOL    HW2  267   0.930   1.945   0.172  0.1194 -0.7820 -0.2238
  150SOL     OW  268   2.570   2.036   0.401  0.5080 -0.5776 -0.1732
  150SOL    HW1  269   2.576   1.936   0.396 -0.7829 -0.8337  1.9393
  150SOL    HW2  270   2.633   2.070   0.471  0.2026 -0.0256 -0.1601
  151SOL     OW  271   3.110   0.970   1.144 -0.2632  0.5676  0.1278
  151SOL    HW1  272   3.017   0.955   1.177 -0.7270 -1.7187 -1.8862
  151SOL    HW2  273   3.119   0.931   1.052  2.6958  0.7203  0.2559
  152SOL     OW  274   4.626   1.035   0.886  0.4325  0.5875 -0.4098
  152SOL    HW1  275   4.618   1.100   0.961 -1.2926 -1.9364  1.7508
  152SOL    HW2  276   4.723   1.014   0.871  0.7953  0.1294  2.1074
  153SOL     OW  277   0.872   1.027   0.572 -0.1632 -0.4762 -0.4238
  153SOL    HW1  278   0.817   1.070   0.501  0.4558 -1.0856 -1.2984
  153SOL    HW2  279   0.969   1.029   0.545  0.3643  1.0814  1.3191
  154SOL     OW  280   5.002   0.754   0.033 -0.0555  0.2891 -0.1079
  154SOL    HW1  281   5.060   0.761   0.114 -1.0445 -0.6035  0.7079
  154SOL    HW2  282   5.023   0.670  -0.017 -0.2780  0.2308 -0.1047
  155SOL     OW  283   1.347   0.435   0.731 -0.1802  0.1033  0.4241
  155SOL    HW1  284   1.349   0.469   0.824 -0.4153  0.5227  0.2764
  155SOL    HW2  285   1.430   0.464   0.682  0.6742 -1.3530  0.9244
  156SOL     OW  286   0.596   0.260   0.452 -0.0723  0.0496 -0.2178
  156SOL    HW1  287   0.628   0.178   0.499  2.0629  0.9554  0.0441
  156SOL    HW2  288   0.599   0.245   0.353 -1.1024 -0.6502 -0.1557
  157SOL     OW  289   5.055   1.679   1.451  0.4984 -0.0275  0.7498
  157SOL    HW1  290   4.991   1.665   1.526 -0.3532 -0.4539 -0.0302
  157SOL    HW2  291   5.006   1.716   1.372  1.1376 -0.6696  0.0357
  158SOL     OW  292   1.233   0.852   4.676  0.1154 -0.3189  0.3972
  158SOL    HW1  293   1.290   0.772   4.694  0.1004 -0.4483 -0.1059
  158SOL    HW2  294   1.260   0.892   4.589 -1.3287 -1.0742 -0.4372
  159SOL     OW  295   1.255   0.661   0.886 -0.2800  0.0173 -0.0875
  159SOL    HW1  296   1.276   0.579   0.939 -0.8157 -0.0258  0.0637
  159SOL    HW2  297   1.339   0.714   0.872  0.2195 -0.9557 -0.8805
  160SOL     OW  298   0.498   4.856   3.967  0.5463  0.2551 -0.1728
  160SOL    HW1  299   0.596   4.866   3.947  1.1116  0.0966  2.2391
  160SOL    HW2  300   0.484   4.852   4.065 -1.9390  0.3569 -0.4572
  161SOL     OW  301   3.926   1.543   2.404  0.1904  0.1583 -0.1586
  161SOL    HW1  302   3.943   1.483   2.482  1.2192  0.4172 -0.1741
  161SOL    HW2  303   3.898   1.487   2.325  0.1359 -0.1981  0.1095
  162SOL     OW  304   1.069   0.810   4.886  0.2551  0.1623  0.5126
  162SOL    HW1  305   1.092   0.905   4.866 -0.6470  0.5608  1.2535
  162SOL    HW2  306   1.113   0.750   4.820  3.1090  0.8539  1.6188
  163SOL     OW  307   1.510   2.078   1.485  0.1583 -0.2426 -0.3993
  163SOL    HW1  308   1.604   2.042   1.492  0.1214 -0.2505  0.1084
  163SOL    HW2  309   1.461   2.059   1.570  0.7127  2.6604  0.6524
  164SOL     OW  310   0.218   0.137   2.244 -0.3520 -0.0147  0.4486
  164SOL    HW1  311   0.189   0.168   2.335 -0.8211 -2.1012  1.0658
  164SOL    HW2  312   0.140   0.134   2.183  0.0909  2.1174 -0.3109
  165SOL     OW  313   1.583   0.549   1.487 -0.2658  0.2878 -0.5291
  165SOL    HW1  314   1.630   0.473   1.532 -1.3621  0.0070  0.1808
  165SOL    HW2  315   1.526   0.597   1.553 -0.7246  0.8303 -1.2978
  166SOL     OW  316   1.658   1.003   0.094 -0.0046  0.7289  0.3863
  166SOL    HW1  317   1.625   0.955   0.013  0.2955 -0.5885  1.0107
  166SOL    HW2  318   1.753   1.031   0.079  0.1301  0.2718  0.3607
  167SOL     OW  319   1.685   4.297   0.186  0.2312  0.1173 -0.2826
  167SOL    HW1  320   1.650   4.383   0.223 -0.1666 -0.8279  1.6415
  167SOL    HW2  321   1.610   4.247   0.143  0.5936  0.9868 -2.0080
  168SOL     OW  322   0.988   4.139   1.642 -0.0667 -0.0978 -0.0540
  168SOL    HW1  323   1.013   4.235   1.631  1.2642 -0.7044 -4.2312
  168SOL    HW2  324   1.066   4.089   1.680 -0.0264  0.1268  0.1672
  169SOL     OW  325   0.415   0.775   1.568  0.7971 -0.4977  0.3955
  169SOL    HW1  326   0.384   0.685   1.596 -1.9798  0.4004  0.5284
  169SOL    HW2  327   0.359   0.807   1.492  1.5617  1.2175  0.5066
  170SOL     OW  328   0.617   0.238   1.667  0.3255 -0.3145  0.3392
  170SOL    HW1  329   0.632   0.299   1.589  1.4499 -1.4389 -0.3677
  170SOL    HW2  330   0.525   0.251   1.702  0.0314  0.7112 -0.7341
  171SOL     OW  331   1.278   0.065   2.204 -0.6627 -0.4144  0.3553
  171SOL    HW1  332   1.291  -0.019   2.152 -2.6778 -0.3466 -0.3362
  171SOL    HW2  333   1.214   0.125   2.156 -0.5954  0.7738  1.6754
  172SOL     OW  334   1.106   0.982   1.780  0.0061 -0.1323  0.4192
  172SOL    HW1  335   1.162   1.028   1.849  2.2263 -2.3691  0.2615
  172SOL    HW2  336   1.047   0.915   1.824 -2.2125  1.7408  0.5093
  173SOL     OW  337   2.609   0.219   1.967  0.5947 -0.2799 -0.0255
  173SOL    HW1  338   2.638   0.249   2.058 -0.9205 -1.2317  0.8263
  173SOL    HW2  339   2.617   0.119   1.961 -3.2106 -0.8119  0.6912
  174SOL     OW  340   1.494   5.017   4.913  0.4550 -0.3541  0.5315
  174SOL    HW1  341   1.555   5.056   4.845 -0.1057  0.1842  0.3240
  174SOL    HW2  342   1.503   4.918   4.913  1.8806 -0.2382  1.0499
  175SOL     OW  343   0.079   0.059   1.153  0.0086  0.3662 -0.2577
  175SOL    HW1  344   0.112  -0.035   1.153 -0.2793  0.1915  2.0467
  175SOL    HW2  345   0.069   0.092   1.059 -0.2860 -2.0289 -1.1297
  176SOL     OW  346   4.972   1.165   1.764  0.4229 -0.2467 -0.0958
  176SOL    HW1  347   4.892   1.165   1.824 -0.6507  0.2332 -1.4630
  176SOL    HW2  348   5.047   1.115   1.808 -0.2149  0.3169  1.7312
  177SOL     OW  349   1.415   0.351   4.767 -0.4500 -0.2824 -0.1916
  177SOL    HW1  350   1.421   0.319   4.672 -0.4184 -0.0281 -0.2762
  177SOL    HW2  351   1.500   0.330   4.815  0.4459  1.6108 -0.8543
  178SOL     OW  352   3.064   0.538   2.352  0.2420  0.5951 -0.1154
  178SOL    HW1  353   3.118   0.560   2.271  0.2719  0.5349 -0.1120
  178SOL    HW2  354   2.967   0.555   2.333  0.4294  2.6336  0.5205
  179SOL     OW  355   1.585   0.499   0.638  0.0068 -0.0402  0.7080
  179SOL    HW1  356   1.681   0.476   0.625 -0.3290 -0.5230 -1.1636
  179SOL    HW2  357   1.559   0.571   0.573 -1.0887 -0.4929  0.6250
  180SOL     OW  358   0.775   0.258   2.811  0.2040  0.3360 -0.9603
  180SOL    HW1  359   0.685   0.216   2.799  0.4805 -0.6576  0.2681
  180SOL    HW2  360   0.764   0.351   2.847 -0.3250 -0.0634 -0.0617
  181SOL     OW  361   0.215   0.685   4.172  0.2179 -0.2842  0.4097
  181SOL    HW1  362   0.131   0.732   4.198  0.7264 -0.1430  1.9023
  181SOL    HW2  363   0.229   0.606   4.231  0.3360 -1.2559 -0.8608
  182SOL     OW  364   0.091   1.567   0.855  0.6467 -0.3401  0.1924
  182SOL    HW1  365   0.137   1.500   0.915  0.7589 -0.0994  0.3795
  182SOL    HW2  366   0.149   1.648   0.846  0.5768 -0.3289 -0.1540
  183SOL     OW  367   0.968   0.667   3.950  0.2770 -0.1132  0.5136
  183SOL    HW1  368   0.874   0.693   3.973  0.1125 -1.0622  0.9560
  183SOL    HW2  369   1.030   0.695   4.024  0.3321  0.3716  0.2923
  184SOL     OW  370   1.493   1.158   1.988 -0.0572 -0.1343 -0.1581
  184SOL    HW1  371   1.503   1.257   1.980  0.8702 -0.2632 -0.6811
  184SOL    HW2  372   1.574   1.120   2.032  0.3674 -0.8485 -1.5211
  185SOL     OW  373   0.020   0.056   0.218  0.1671  0.1426  0.5107
  185SOL    HW1  374   0.075   0.006   0.285 -0.1598 -0.6495  0.2021
  185SOL    HW2  375  -0.037  -0.008   0.167  0.2223  0.7614 -0.3616
  186SOL     OW  376   1.626   0.818   4.936 -0.0482  0.1891 -0.6460
  186SOL    HW1  377   1.724   0.797   4.931 -0.0277 -0.0596  0.5616
  186SOL    HW2  378   1.574   0.733   4.949 -0.1885  0.5416  1.4347
  187SOL     OW  379   0.058   2.445   0.763 -0.1563  0.0609 -0.0923
  187SOL    HW1  380   0.153   2.418   0.752 -0.1232  0.8607 -2.3386
  187SOL    HW2  381  -0.001   2.365   0.754  0.2882 -0.4914  1.6399
  188SOL     OW  382   4.090   1.335   0.380 -0.4545 -0.1112  0.5712
  188SOL    HW1  383   4.055   1.416   0.427 -1.0579  0.4678 -0.8145
  188SOL    HW2  384   4.058   1.335   0.285  1.6166 -0.6791 -0.1744
  189SOL     OW  385   4.747   0.141   2.547 -0.3115 -0.4415  0.6178
  189SOL    HW1  386   4.789   0.122   2.458 -0.7412  1.6203 -0.0929
  189SOL    HW2  387   4.797   0.216   2.592 -0.3330 -1.2075  1.9656
  190SOL     OW  388   0.312   4.701   4.934 -0.3224 -0.1862 -0.2970
  190SOL    HW1  389   0.351   4.684   5.024 -1.7615  1.4456  0.6823
  190SOL    HW2  390   0.232   4.760   4.942 -1.7809 -1.7054 -2.4356
  191SOL     OW  391   0.973   2.538   0.608 -0.6618  0.1043 -0.4542
  191SOL    HW1  392   0.895   2.494   0.563 -1.1956  1.3599 -0.8239
  191SOL    HW2  393   1.034   2.577   0.539  0.3157 -0.8728 -0.1658
  192SOL     OW  394   2.772   4.653   1.338 -0.5946 -0.2551 -0.0148
  192SOL    HW1  395   2.704   4.604   1.392 -1.1661  0.7738  0.2296
  192SOL    HW2  396   2.728   4.732   1.294 -0.2200 -1.2224 -2.2364
  193SOL     OW  397   4.735   1.470   1.838 -0.0272 -0.1535  0.2869
  193SOL    HW1  398   4.832   1.492   1.829  0.6441 -2.4421  1.1734
  193SOL    HW2  399   4.720   1.425   1.926 -1.8293 -0.1948 -0.0188
  194SOL     OW  400   0.121   2.521   2.170  0.2993 -0.0475  0.1695
  194SOL    HW1  401   0.151   2.446   2.229  0.4922 -0.0943  0.0138
  194SOL    HW2  402   0.143   2.499   2.075 -0.3991 -0.1621  0.0315
  195SOL     OW  403   4.783   0.765   4.784  0.1464  0.3603  0.3119
  195SOL    HW1  404   4.825   0.676   4.802 -0.8083 -0.3829 -0.9205
  195SOL    HW2  405   4.828   0.807   4.705  1.1456  1.3884  1.3879
  196SOL     OW  406   1.345   4.546   1.444 -0.8512 -0.5188  0.0481
  196SOL    HW1  407   1.324   4.549   1.542 -1.5289 -1.2921 -0.0670
  196SOL    HW2  408   1.422   4.484   1.429  0.4237  0.9541  0.2707
  197SOL     OW  409   1.471   0.227   3.825 -0.1323  0.0611 -0.5562
  197SOL    HW1  410   1.529   0.206   3.746  2.0875  0.2904  0.9288
  197SOL    HW2  411   1.474   0.150   3.889 -0.5531  0.5635  0.0709
  198SOL     OW  412   0.928   0.106   1.286 -0.0922 -0.0333 -0.2249
  198SOL    HW1  413   0.849   0.125   1.227 -0.6869 -0.3348  0.4566
  198SOL    HW2  414   0.918   0.015   1.326 -1.0630  1.1407  2.4347
  199SOL     OW  415   1.503   2.836   1.655 -0.2850 -0.0421 -0.4281
  199SOL    HW1  416   1.435   2.869   1.590  0.9230  1.4176 -1.0038
  199SOL    HW2  417   1.572   2.782   1.607  1.1273  1.8227 -0.5783
  200SOL     OW  418   1.072   0.471   1.586  0.0665 -0.1494  0.2115
  200SOL    HW1  419   1.128   0.552   1.569 -1.3334  0.6170 -0.9484
  200SOL    HW2  420   1.045   0.469   1.682 -0.3768  1.0872  0.1229
  201SOL     OW  421   0.596   1.521   1.631  1.1007 -0.2614 -0.5750
  201SOL    HW1  422   0.565   1.570   1.712 -0.0481  1.7318 -2.1214
  201SOL    HW2  423   0.517   1.479   1.585  1.1683  1.4191 -2.3745
  202SOL     OW  424   1.141   1.459   1.230 -0.2194  0.4581 -0.0208
  202SOL    HW1  425   1.145   1.372   1.279  1.5835 -0.1514 -1.1618
  202SOL    HW2  426   1.049   1.471   1.191 -0.4046 -1.1020 -0.1325
  203SOL     OW  427   0.376   0.034   4.157  0.4694 -0.2925 -0.1431
  203SOL    HW1  428   0.372   0.122   4.110  0.3413 -0.0331  0.3520
  203SOL    HW2  429   0.438  -0.027   4.108 -0.2167 -0.2712 -1.0655
  204SOL     OW  430   1.126   5.050   1.104  0.0110  0.3402 -0.1596
  204SOL    HW1  431   1.225   5.060   1.116  0.1889 -1.6493  0.4240
  204SOL    HW2  432   1.078   5.098   1.177  0.4749  2.1052 -0.9617
  205SOL     OW  433   4.608   4.620   4.922  0.1606 -0.8616 -0.3307
  205SOL    HW1  434   4.565   4.677   4.992  2.4900  0.9790 -0.2541
  205SOL    HW2  435   4.688   4.575   4.961  0.7924 -0.7770 -1.4767
  206SOL     OW  436   4.983   0.120   0.642  0.1107  0.0323  0.2678
  206SOL    HW1  437   4.963   0.210   0.603 -0.6108  0.3757  1.3780
  206SOL    HW2  438   4.898   0.070   0.657  0.2141  0.4526  2.5885
  207SOL     OW  439   1.022   0.129   0.715  0.5763  0.1198  0.3344
  207SOL    HW1  440   0.980   0.063   0.777 -0.5353  0.2681 -0.2329
  207SOL    HW2  441   1.009   0.100   0.621  1.0089  0.6035  0.1200
  208SOL     OW  442   1.848   1.673   1.267 -0.3875  0.3966  0.4100
  208SOL    HW1  443   1.863   1.582   1.228 -1.0213 -0.0543  1.1954
  208SOL    HW2  444   1.921   1.694   1.331 -0.0508  0.5984 -0.0306
  209SOL     OW  445   1.141   0.819   1.303  0.3984 -0.3458  0.4951
  209SOL    HW1  446   1.173   0.900   1.255  1.6745 -0.9812  0.2286
  209SOL    HW2  447   1.095   0.847   1.388  1.6474  0.6280  0.8873
  210SOL     OW  448   4.994   1.493   0.326  0.3144 -0.7103  0.1539
  210SOL    HW1  449   5.075   1.550   0.323 -0.0965 -0.1253 -0.0715
  210SOL    HW2  450   4.917   1.547   0.361 -0.4529 -0.6543 -1.5598
  211SOL     OW  451   0.152   5.039   4.602 -0.2697 -0.1775 -0.2309
  211SOL    HW1  452   0.123   5.131   4.576  0.2737  0.0103 -0.1754
  211SOL    HW2  453   0.082   4.997   4.660 -0.4321  0.2642 -0.1075
  212SOL     OW  454   4.590   1.227   1.657 -0.0640  0.9596 -0.2475
  212SOL    HW1  455   4.649   1.286   1.602  1.6105  0.3912  0.8682
  212SOL    HW2  456   4.637   1.202   1.742 -1.2268 -0.9316 -0.0918
  213SOL     OW  457   0.565   0.392   1.410 -0.8582  0.1356 -0.0028
  213SOL    HW1  458   0.648   0.447   1.417 -0.9322  0.1964  0.4280
  213SOL    HW2  459   0.544   0.376   1.313 -0.4355  0.2515 -0.1170
  214SOL     OW  460   1.706   0.095   1.171 -0.4270 -0.3055 -0.0370
  214SOL    HW1  461   1.717   0.182   1.218  0.7495  0.4941 -1.7110
  214SOL    HW2  462   1.747   0.022   1.226  0.9131  0.6032  0.1944
  215SOL     OW  463   1.855   4.811   0.852  0.0381 -0.1683 -0.2415
  215SOL    HW1  464   1.777   4.840   0.798 -0.2184  0.7984  0.6004
  215SOL    HW2  465   1.907   4.891   0.881 -1.0266 -0.3877  2.6840
  216SOL     OW  466   0.556   1.896   4.973 -0.6411  0.1477 -0.5571
  216SOL    HW1  467   0.499   1.815   4.985 -2.0221  1.1924  0.3329
  216SOL    HW2  468   0.502   1.968   4.929  0.3346  0.8328 -0.6724
  217SOL     OW  469   0.719   0.485   0.460  0.0573 -0.3246 -0.1117
  217SOL    HW1  470   0.819   0.480   0.466  0.0805 -2.0128 -1.1694
  217SOL    HW2  471   0.681   0.394   0.472 -1.4969  0.5085  1.7141
  218SOL     OW  472   1.773   5.019   0.524  0.4653  0.1646  0.4879
  218SOL    HW1  473   1.769   5.093   0.591 -0.8556  0.6623 -0.1164
  218SOL    HW2  474   1.683   5.005   0.484  1.5941  1.3741 -2.7821
  219SOL     OW  475   4.142   2.403   4.768  0.1179  0.0346  0.4463
  219SOL    HW1  476   4.197   2.386   4.850  0.4214 -3.3866 -0.3086
  219SOL    HW2  477   4.045   2.391   4.789  0.2609 -1.9996  0.1750
  220SOL     OW  478   4.902   0.863   0.870  0.0283  0.1257 -0.0302
  220SOL    HW1  479   4.919   0.778   0.821 -2.1600 -0.4226  0.0863
  220SOL    HW2  480   4.870   0.843   0.963 -0.8726  1.0652 -0.1221
  221SOL     OW  481   1.673   1.581   0.765 -0.0378 -0.3132  0.2887
  221SOL    HW1  482   1.709   1.622   0.681  0.8028 -1.3474  0.1236
  221SOL    HW2  483   1.599   1.518   0.743 -0.0135 -0.3629  0.3487
  222SOL     OW  484   4.463   4.922   0.210 -0.4658 -0.2822 -0.1384
  222SOL    HW1  485   4.370   4.912   0.242  0.5038 -0.8246  2.7724
  222SOL    HW2  486   4.481   5.018   0.189 -1.5714 -0.1286 -0.4179
  223SOL     OW  487   1.372   0.752   1.835 -0.0315  0.1603  0.4345
  223SOL    HW1  488   1.418   0.807   1.765  0.0466 -0.5582 -0.0914
  223SOL    HW2  489   1.292   0.707   1.795  0.5126 -0.9529  0.5578
  224SOL     OW  490   0.476   4.366   2.422  0.3654  0.0207  0.0339
  224SOL    HW1  491   0.490   4.269   2.403  0.0029  0.1794 -1.1443
  224SOL    HW2  492   0.549   4.399   2.483  1.3727 -0.6499 -0.7699
  225SOL     OW  493   2.149   1.282   1.431  0.2627 -0.4912  0.4238
  225SOL    HW1  494   2.240   1.322   1.423  0.5909 -1.2805  0.1280
  225SOL    HW2  495   2.127   1.268   1.528  0.8164 -1.1073  0.4657
  226SOL     OW  496   1.331   1.454   1.048  0.0773  0.0371  0.6474
  226SOL    HW1  497   1.255   1.450   1.112  0.0018  0.1578  0.5656
  226SOL    HW2  498   1.331   1.373   0.990 -1.3915  1.1076 -0.9463
  227SOL     OW  499   1.961   0.001   0.862  0.1078 -0.1882  0.2865
  227SOL    HW1  500   1.910  -0.002   0.776  0.9358  1.1575 -0.2671
  227SOL    HW2  501   2.022   0.080   0.863  0.9707 -0.8286  1.6329
  228SOL     OW  502   1.849   4.410   1.753 -0.1382 -0.1686 -0.3581
  228SOL    HW1  503   1.872   4.501   1.789  0.9742 -0.8626  0.7585
  228SOL    HW2  504   1.796   4.360   1.820  0.7959 -0.9859 -0.2069
  229SOL     OW  505   4.793   0.078   1.230 -0.0751  0.1341 -0.1419
  229SOL    HW1  506   4.842   0.028   1.159 -0.9080 -0.0081 -0.6359
  229SOL    HW2  507   4.775   0.016   1.307 -1.5071 -0.5146 -0.9418
  230SOL     OW  508   0.500   1.080   0.271 -0.1463  0.1183 -0.8870
  230SOL    HW1  509   0.481   0.982   0.260  0.4771 -0.2177  0.7378
  230SOL    HW2  510   0.416   1.127   0.298 -0.4277  0.0280 -1.5824
  231SOL     OW  511   4.750   1.323   2.072  0.2481  0.2390 -0.2931
  231SOL    HW1  512   4.829   1.348   2.128  0.4194 -1.7693  0.4499
  231SOL    HW2  513   4.668   1.319   2.129  0.2401 -0.8472 -0.3513
  232SOL     OW  514   0.837   1.396   1.268 -0.4975  0.1302  0.1046
  232SOL    HW1  515   0.842   1.323   1.199 -3.0291  0.8064 -0.9259
  232SOL    HW2  516   0.820   1.355   1.358  0.8216 -0.6681  0.0123
  233SOL     OW  517   4.208   2.128   1.598 -0.1029  0.4162  0.2306
  233SOL    HW1  518   4.268   2.172   1.665 -2.1634  2.6822  0.7067
  233SOL    HW2  519   4.220   2.172   1.509  0.4621 -0.5956 -0.2167
  234SOL     OW  520   4.843   0.694   0.383 -0.1749 -0.7436 -0.0852
  234SOL    HW1  521   4.935   0.716   0.415 -0.4444 -0.5883  0.6082
  234SOL    HW2  522   4.786   0.776   0.386  0.0473 -0.4940 -1.9389
  235SOL     OW  523   0.150   4.883   1.144  0.5746 -0.4556  0.3417
  235SOL    HW1  524   0.121   4.878   1.048 -0.1439  0.7420  0.4773
  235SOL    HW2  525   0.091   4.825   1.200  0.0980 -0.0542  0.2552
  236SOL     OW  526   1.069   4.873   0.671  0.4110  0.3332  0.1517
  236SOL    HW1  527   0.988   4.871   0.612 -0.4547  1.2090  1.2640
  236SOL    HW2  528   1.043   4.907   0.762  1.8318 -0.4035  0.8561
  237SOL     OW  529   0.239   1.619   2.398  0.0882 -0.0029  0.8208
  237SOL    HW1  530   0.217   1.542   2.337  1.0730 -0.3005  0.8306
  237SOL    HW2  531   0.156   1.673   2.413 -0.4813 -0.7021  0.3134
  238SOL     OW  532   0.775   0.404   0.985 -0.8367 -0.2742  0.5733
  238SOL    HW1  533   0.690   0.411   0.933 -0.8204  1.4207  0.7191
  238SOL    HW2  534   0.852   0.432   0.928 -0.7189  0.7983  1.2446
  239SOL     OW  535   5.009   1.210   5.009  0.0535  1.1240  0.5730
  239SOL    HW1  536   4.914   1.237   4.993 -0.3672 -0.0684  0.9242
  239SOL    HW2  537   5.061   1.221   4.924 -0.9850 -0.4977 -0.3274
  240SOL     OW  538   5.077   1.395   2.086  0.3811 -0.1374 -0.1088
  240SOL    HW1  539   5.053   1.489   2.111  2.7122  0.5679 -0.2988
  240SOL    HW2  540   5.091   1.390   1.987  2.2612 -0.1383  0.1223
  241SOL     OW  541   0.641   2.144   0.886 -0.2867 -0.1250 -0.9086
  241SOL    HW1  542   0.719   2.204   0.904  0.2673 -0.6671 -1.4547
  241SOL    HW2  543   0.630   2.133   0.787 -1.6356  0.6778 -0.8795
  242SOL     OW  544   1.594   4.206   0.557 -0.5857 -0.3243  0.4516
  242SOL    HW1  545   1.675   4.229   0.610 -1.2355  0.9397  0.9465
  242SOL    HW2  546   1.541   4.289   0.538 -1.4729 -1.0395 -0.3424
  243SOL     OW  547   1.022   0.885   1.530  0.3449 -0.4110 -0.0576
  243SOL    HW1  548   0.926   0.910   1.518  0.4268 -0.5272 -1.0378
  243SOL    HW2  549   1.053   0.914   1.621 -0.4301  0.2119  0.0169
  244SOL     OW  550   0.015   0.420   1.374  0.1086 -0.3467  0.3788
  244SOL    HW1  551   0.044   0.332   1.411  0.0790 -0.4220  0.2250
  244SOL    HW2  552  -0.084   0.419   1.360  0.3133 -0.9356 -1.2860
  245SOL     OW  553   0.925   1.222   0.757  0.1119  0.0950  0.0134
  245SOL    HW1  554   0.894   1.155   0.690  0.0230  0.6259 -0.4876
  245SOL    HW2  555   0.960   1.303   0.709  0.7189  0.1906  0.5936
  246SOL     OW  556   0.577   1.199   1.146  0.3801 -0.5963 -0.4932
  246SOL    HW1  557   0.664   1.191   1.098  0.5615  1.6564 -0.6268
  246SOL    HW2  558   0.594   1.218   1.243  0.0521  0.3795 -0.6189
  247SOL     OW  559   0.752   4.265   0.320  0.0597 -0.6161 -0.8309
  247SOL    HW1  560   0.824   4.332   0.340  0.2214 -0.9328 -0.3529
  247SOL    HW2  561   0.792   4.174   0.312 -0.4908 -1.0746  1.1350
  248SOL     OW  562   0.146   2.110   2.138  0.4244  0.4020 -0.2153
  248SOL    HW1  563   0.186   2.188   2.186 -0.2351  1.1427 -0.8417
  248SOL    HW2  564   0.188   2.025   2.172  0.7081  0.9715  0.9159
  249SOL     OW  565   4.980   4.093   1.077  0.1203 -0.6405 -0.3237
  249SOL    HW1  566   4.903   4.097   1.140  0.7282  1.0381  0.3748
  249SOL    HW2  567   5.011   3.998   1.067  0.2483 -0.9189  2.2228
  250SOL     OW  568   0.559   1.234   1.976 -0.1028 -0.8063 -0.2407
  250SOL    HW1  569   0.515   1.323   1.987  0.4742 -0.5455 -0.0323
  250SOL    HW2  570   0.570   1.215   1.878 -0.1069 -0.5884 -0.2848
  251SOL     OW  571   5.069   0.462   4.078  0.9697  0.4856 -0.2665
  251SOL    HW1  572   5.044   0.365   4.076 -0.5486  0.8295  0.4718
  251SOL    HW2  573   5.145   0.475   4.143 -0.1216  0.0278  1.1623
  252SOL     OW  574   1.497   4.915   1.094  0.4458 -0.4092  0.4350
  252SOL    HW1  575   1.541   4.992   1.139 -0.2378 -0.0012  0.4059
  252SOL    HW2  576   1.430   4.873   1.156 -0.3507  0.0286 -0.1232
  253SOL     OW  577   0.460   4.583   0.984 -1.0803  0.6792 -0.0284
  253SOL    HW1  578   0.558   4.571   0.973 -0.7730  0.2117  2.6873
  253SOL    HW2  579   0.418   4.593   0.893  1.3931  0.6587 -1.2675
  254SOL     OW  580   1.037   1.480   0.651  0.4141 -0.2766 -0.8855
  254SOL    HW1  581   1.078   1.509   0.737 -1.3860  1.0430 -0.4233
  254SOL    HW2  582   1.109   1.469   0.582  1.6719  0.5763  0.2408
  255SOL     OW  583   2.582   1.397   1.724  0.2338  0.4753 -0.1624
  255SOL    HW1  584   2.534   1.311   1.705  0.0883  0.3821  0.5984
  255SOL    HW2  585   2.675   1.377   1.753  0.1710  0.5655  0.1060
  256SOL     OW  586   4.812   0.734   1.096 -0.0411 -0.7881 -0.1057
  256SOL    HW1  587   4.877   0.700   1.164  0.2856  1.3645  0.7251
  256SOL    HW2  588   4.720   0.735   1.136  0.2017  0.7997  0.4826
  257SOL     OW  589   0.823   0.323   0.024  0.8684 -0.1382  0.0716
  257SOL    HW1  590   0.828   0.419  -0.003 -0.4486  0.3044  1.2922
  257SOL    HW2  591   0.892   0.305   0.094  1.7889 -0.3545 -0.8709
  258SOL     OW  592   1.167   5.068   4.529  0.2489  0.1026 -0.1201
  258SOL    HW1  593   1.151   4.975   4.497  0.5130  0.4205 -1.2490
  258SOL    HW2  594   1.088   5.125   4.506  0.4581  0.3470 -0.2453
  259SOL     OW  595   0.638   1.288   0.744  0.3418 -0.4844 -1.1732
  259SOL    HW1  596   0.716   1.227   0.755 -0.4506 -1.7207 -2.1199
  259SOL    HW2  597   0.554   1.239   0.770 -0.0629  1.1140  0.7865
  260SOL     OW  598   1.374   0.521   2.187 -0.6090  0.0260 -0.2935
  260SOL    HW1  599   1.277   0.543   2.190 -0.6195  0.2160 -1.7251
  260SOL    HW2  600   1.425   0.599   2.151  0.1237  0.0382  0.7247
  261SOL     OW  601   3.528   1.072   1.980 -0.0853 -0.1890 -0.8264
  261SOL    HW1  602   3.622   1.044   1.959 -0.2262  0.0515 -1.8284
  261SOL    HW2  603   3.524   1.108   2.073  0.9402  0.3514 -0.9816
  262SOL     OW  604   0.979   0.780   1.887 -0.2169  0.0776 -0.3487
  262SOL    HW1  605   0.880   0.774   1.890 -0.1878 -0.4462 -0.3508
  262SOL    HW2  606   1.017   0.692   1.859  0.2075  0.5147 -1.2096
  263SOL     OW  607   2.703   0.297   2.211 -0.0488  0.0450 -0.0591
  263SOL    HW1  608   2.720   0.393   2.234  0.1377 -0.1828  0.8232
  263SOL    HW2  609   2.726   0.240   2.290  1.1708 -0.8582 -1.0317
  264SOL     OW  610   4.923   0.389   4.547 -0.1877 -0.1407 -0.1146
  264SOL    HW1  611   4.923   0.419   4.642  0.0974 -0.3589 -0.0456
  264SOL    HW2  612   4.913   0.469   4.487 -2.1340 -0.1372  0.1310
  265SOL     OW  613   4.484   1.465   2.482  0.0274 -0.4315  0.1816
  265SOL    HW1  614   4.510   1.375   2.517  1.1876 -0.0798  0.2528
  265SOL    HW2  615   4.401   1.456   2.426 -0.7585 -1.2888  1.4401
  266SOL     OW  616   0.168   1.203   1.407 -0.4812  0.4615  0.1324
  266SOL    HW1  617   0.174   1.230   1.311  0.9868  1.4480  0.4567
  266SOL    HW2  618   0.081   1.235   1.446 -1.5112 -0.7663 -1.0659
  267SOL     OW  619   1.239   1.082   1.994 -0.0156  0.0192 -0.0687
  267SOL    HW1  620   1.234   0.996   2.046 -1.1675  0.3534  0.4225
  267SOL    HW2  621   1.334   1.110   1.985  0.4898 -1.8255 -1.1277
  268SOL     OW  622   0.261   4.950   0.337 -0.7540 -0.1371 -0.2375
  268SOL    HW1  623   0.266   4.851   0.354 -1.5216 -0.1542 -0.0835
  268SOL    HW2  624   0.259   4.999   0.424  0.3143  0.0641 -0.3107
  269SOL     OW  625   4.212   2.180   2.848  0.3178 -0.3718 -0.0608
  269SOL    HW1  626   4.236   2.273   2.819  0.0699  0.1440  1.3216
  269SOL    HW2  627   4.209   2.176   2.948  1.9425 -2.2913 -0.0306
  270SOL     OW  628   1.261   1.073   1.197  0.4937  0.2596 -0.0225
  270SOL    HW1  629   1.217   1.130   1.266  0.5535  0.2315  0.0383
  270SOL    HW2  630   1.355   1.104   1.183  0.2918  0.6544 -0.5294
  271SOL     OW  631   0.860   0.913   0.013 -0.1392  0.1721  0.2215
  271SOL    HW1  632   0.923   0.908  -0.064 -1.2116  0.4107 -0.6969
  271SOL    HW2  633   0.831   0.821   0.038 -2.2810  0.2065 -1.8125
  272SOL     OW  634   1.405   0.211   1.046  0.0987 -0.1994  0.3657
  272SOL    HW1  635   1.496   0.182   1.074  0.1092 -1.6454 -1.0452
  272SOL    HW2  636   1.390   0.188   0.949 -2.0684 -0.8724  0.7871
  273SOL     OW  637   4.402   2.587   2.054  0.0297  0.3651 -0.0273
  273SOL    HW1  638   4.387   2.494   2.088 -0.7124  0.5087  0.0407
  273SOL    HW2  639   4.414   2.649   2.131  2.2177  0.0747 -0.0703
  274SOL     OW  640   4.707   0.320   0.868 -0.1046  0.2347  0.2068
  274SOL    HW1  641   4.663   0.235   0.895  0.8165 -0.9613 -1.8284
  274SOL    HW2  642   4.792   0.333   0.920  0.2040 -0.5482 -0.1015
  275SOL     OW  643   0.391   1.152   0.759 -0.1199  0.5492  0.0152
  275SOL    HW1  644   0.293   1.171   0.762 -0.8421 -2.6099  1.6143
  275SOL    HW2  645   0.408   1.074   0.700  1.4982  1.1670 -0.3852
  276SOL     OW  646   1.169   5.068   3.421  0.4097  0.5425 -0.2761
  276SOL    HW1  647   1.096   5.111   3.368 -0.8855  0.5254  1.4037
  276SOL    HW2  648   1.161   4.969   3.416 -0.5829  0.5307  1.0158
  277SOL     OW  649   3.933   1.058   1.501 -0.3781  0.6646  0.0040
  277SOL    HW1  650   4.019   1.109   1.496  0.7982 -1.2722 -0.5360
  277SOL    HW2  651   3.918   1.010   1.415 -1.1054 -0.3994  0.7030
  278SOL     OW  652   1.519   5.009   0.411 -0.0765  0.0152  0.1520
  278SOL    HW1  653   1.488   5.065   0.334 -0.0565  1.3707  1.0864
  278SOL    HW2  654   1.457   5.021   0.489  0.0448 -1.1242  0.4444
  279SOL     OW  655   0.441   0.923   0.638  0.2759 -0.7032 -0.7265
  279SOL    HW1  656   0.504   0.864   0.587  0.1695 -1.9839  0.5544
  279SOL    HW2  657   0.427   0.885   0.730  2.8481  3.0124  1.4752
  280SOL     OW  658   3.173   1.418   4.508 -0.4400  0.3638  0.1557
  280SOL    HW1  659   3.082   1.446   4.539 -0.7846 -1.4383  0.8712
  280SOL    HW2  660   3.170   1.325   4.473  1.2500  0.0174  0.7940
  281SOL     OW  661   0.836   1.206   1.077  0.0318  0.2872 -0.3974
  281SOL    HW1  662   0.868   1.236   0.987 -0.9773  1.0169 -0.5396
  281SOL    HW2  663   0.852   1.108   1.087  0.0376  0.1653 -1.4307
  282SOL     OW  664   1.653   0.100   5.071 -0.1639 -0.3462 -0.0897
  282SOL    HW1  665   1.597   0.027   5.033  0.9383 -0.5772 -1.3251
  282SOL    HW2  666   1.661   0.174   5.004  0.1139  0.1703  0.5012
  283SOL     OW  667   4.993   1.969   4.822 -0.0198 -0.1104  0.5577
  283SOL    HW1  668   5.068   2.021   4.780 -1.2376  0.1846 -1.3445
  283SOL    HW2  669   5.031   1.894   4.877  1.6896  1.1168  1.1455
  284SOL     OW  670   0.533   3.853   0.181  0.4750 -0.0272 -0.2574
  284SOL    HW1  671   0.611   3.842   0.119  0.3303  0.6228 -0.5587
  284SOL    HW2  672   0.556   3.919   0.252 -0.1805  1.0318 -0.9999
  285SOL     OW  673   1.121   1.229   1.392 -0.1903 -0.2694  0.0138
  285SOL    HW1  674   1.029   1.192   1.410 -0.4008  0.2936  0.1082
  285SOL    HW2  675   1.172   1.234   1.478 -0.5046  0.5609  0.1647
  286SOL     OW  676   1.489   1.300   0.476  0.1112  0.3511  0.1014
  286SOL    HW1  677   1.478   1.236   0.399  0.2879 -0.6852  0.9218
  286SOL    HW2  678   1.563   1.364   0.455 -0.9270  1.1453 -1.2917
  287SOL     OW  679   5.026   2.947   1.867 -0.8049  0.3161  0.7755
  287SOL    HW1  680   4.991   2.883   1.799  2.8893  0.1352 -1.2432
  287SOL    HW2  681   5.065   3.026   1.821 -0.0746  1.2469  2.8529
  288SOL     OW  682   0.586   5.084   1.501 -0.5362  1.0155  0.4153
  288SOL    HW1  683   0.598   5.166   1.558 -0.7598  0.6183  1.0407
  288SOL    HW2  684   0.559   5.111   1.409 -2.2179  1.5885  1.0482
  289SOL     OW  685   0.013   1.378   2.578 -0.7129  0.0163  0.0746
  289SOL    HW1  686   0.050   1.358   2.488 -0.4958  2.6245 -0.5133
  289SOL    HW2  687  -0.055   1.310   2.603  0.8726 -2.0657 -1.0086
  290SOL     OW  688   0.722   0.723   4.036  0.7073  0.2354  0.3959
  290SOL    HW1  689   0.658   0.652   4.066 -1.7409  2.8529  1.8921
  290SOL    HW2  690   0.690   0.763   3.950 -0.7021  2.5448  1.8730
  291SOL     OW  691   2.073   1.443   1.780  0.6433  0.7071  0.4795
  291SOL    HW1  692   2.042   1.512   1.715  1.8901  0.9876  0.1684
  291SOL    HW2  693   2.168   1.461   1.807  0.6093 -0.2123  1.2949
  292SOL     OW  694   1.893   3.970   1.282  0.1526 -0.1186  0.1105
  292SOL    HW1  695   1.878   4.041   1.350  0.8825 -0.8343  1.0437
  292SOL    HW2  696   1.830   3.894   1.298  0.6844 -0.5220  0.3337
  293SOL     OW  697   0.705   4.967   4.370 -0.2931  0.0907  0.1787
  293SOL    HW1  698   0.668   5.055   4.400 -0.2303  0.2083 -0.0935
  293SOL    HW2  699   0.761   4.928   4.443  0.7935  0.9143 -0.2005
  294SOL     OW  700   1.922   0.005   3.129 -1.0642 -0.3135 -0.6454
  294SOL    HW1  701   1.982   0.065   3.182 -0.8685 -0.3617 -0.8136
  294SOL    HW2  702   1.828   0.040   3.133 -1.4873 -1.5197  1.5855
  295SOL     OW  703   0.814   1.302   1.539  0.5404 -0.2263 -0.0159
  295SOL    HW1  704   0.765   1.377   1.583 -0.3107 -0.3436 -0.7335
  295SOL    HW2  705   0.869   1.253   1.608  1.6062  1.4102  0.3354
  296SOL     OW  706   1.325   1.530   4.505 -0.4396  0.2971  0.0626
  296SOL    HW1  707   1.393   1.477   4.556 -1.7437 -1.9307 -0.3838
  296SOL    HW2  708   1.306   1.615   4.554  1.5897  0.3311  0.9185
  297SOL     OW  709   2.877   1.753   0.399 -0.4318  0.2247  0.2743
  297SOL    HW1  710   2.902   1.673   0.454  0.0803 -0.1671 -0.4982
  297SOL    HW2  711   2.777   1.755   0.387 -0.5096  0.1087  0.9064
  298SOL     OW  712   4.785   1.105   1.178 -0.4937 -0.1426 -0.0638
  298SOL    HW1  713   4.727   1.179   1.213 -0.0296 -0.3039  1.0820
  298SOL    HW2  714   4.852   1.142   1.114 -0.7674  0.3016 -0.0980
  299SOL     OW  715   2.058   1.719   1.448  0.0404 -0.6690 -0.4045
  299SOL    HW1  716   2.045   1.711   1.547  0.7621  0.1203 -0.2325
  299SOL    HW2  717   2.144   1.766   1.430 -0.4484 -0.1363 -1.3996
  300SOL     OW  718   1.110   1.339   1.989  0.6961 -0.7222 -0.2844
  300SOL    HW1  719   1.017   1.329   1.954  0.5991 -0.3168 -0.1514
  300SOL    HW2  720   1.146   1.250   2.016  0.3497 -0.8808 -0.3500
  301SOL     OW  721   0.816   1.709   0.889 -0.1039  0.1017 -0.2669
  301SOL    HW1  722   0.774   1.787   0.935  0.0151  0.0820 -0.1233
  301SOL    HW2  723   0.900   1.683   0.938  0.6605  0.8186 -1.1565
  302SOL     OW  724   0.083   2.842   5.058  0.3135  0.0730  0.1918
  302SOL    HW1  725   0.150   2.917   5.053  0.4690 -0.1255 -1.8455
  302SOL    HW2  726   0.035   2.845   5.145  1.0726  1.8839  0.5866
  303SOL     OW  727   2.743   4.509   1.065 -0.1452 -0.1713  0.5745
  303SOL    HW1  728   2.709   4.526   0.972  0.3649  0.6797  0.5371
  303SOL    HW2  729   2.700   4.573   1.128 -1.4052 -1.5262  1.1465
  304SOL     OW  730   0.135   1.206   0.694  0.1978 -0.1401  0.2409
  304SOL    HW1  731   0.074   1.127   0.700 -0.3384  0.2567  0.1126
  304SOL    HW2  732   0.085   1.283   0.655  0.4773  0.5042  1.1228
  305SOL     OW  733   4.340   1.329   1.973 -0.1510  0.0460 -0.1134
  305SOL    HW1  734   4.345   1.400   1.902  0.2704  0.6546  0.5175
  305SOL    HW2  735   4.246   1.296   1.980 -0.6828  1.5909  0.5890
  306SOL     OW  736   0.280   5.042   1.473  0.2838  0.0885 -0.3250
  306SOL    HW1  737   0.350   5.078   1.410  0.0268  1.8693  0.3308
  306SOL    HW2  738   0.207   5.110   1.482 -1.0246 -1.2960 -0.1774
  307SOL     OW  739   3.836   0.023   4.636 -0.7190  0.4491 -0.2657
  307SOL    HW1  740   3.905   0.049   4.568 -0.9246  1.5510 -0.0655
  307SOL    HW2  741   3.750   0.001   4.591 -0.3116 -0.7202 -0.5011
  308SOL     OW  742   1.859   0.611   1.968  0.1344  0.0862 -0.3350
  308SOL    HW1  743   1.950   0.648   1.950 -0.1221  1.3617  0.8059
  308SOL    HW2  744   1.845   0.606   2.067 -1.7024  1.6490 -0.4736
  309SOL     OW  745   0.014   1.161   4.735 -0.1246 -0.5068 -0.7732
  309SOL    HW1  746   0.023   1.225   4.659 -0.6541 -0.9263 -1.2043
  309SOL    HW2  747   0.033   1.068   4.703  3.0208 -0.3573  0.3664
  310SOL     OW  748   1.796   1.271   4.947 -0.4528 -0.0710 -0.3151
  310SOL    HW1  749   1.787   1.342   4.877 -0.5566 -0.5586 -0.8046
  310SOL    HW2  750   1.893   1.256   4.967 -0.4479  0.4849  0.0763
  311SOL     OW  751   1.079   0.262   0.108  0.2835 -0.4891  0.6037
  311SOL    HW1  752   1.139   0.268   0.028  0.2971  0.1352  0.6544
  311SOL    HW2  753   1.126   0.211   0.180  1.7014  1.8216  1.4460
  312SOL     OW  754   0.651   0.340   2.489 -0.7419  0.2176  0.9498
  312SOL    HW1  755   0.691   0.258   2.449 -1.1201 -0.1153  1.2491
  312SOL    HW2  756   0.618   0.400   2.416 -0.8829 -0.1085  0.7430
  313SOL     OW  757   1.835   0.142   1.886 -0.0307  0.4417 -0.0682
  313SOL    HW1  758   1.792   0.145   1.796  0.9247  1.8907 -0.5068
  313SOL    HW2  759   1.896   0.063   1.891  0.8958  1.0512 -1.1879
  314SOL     OW  760   1.301   0.663   1.542  0.1281 -0.0972 -0.0467
  314SOL    HW1  761   1.372   0.731   1.565 -0.5079  0.1423  1.2535
  314SOL    HW2  762   1.221   0.710   1.505 -0.3512 -0.1053  0.9445
  315SOL     OW  763   4.175   0.887   2.700  0.1602  0.5175 -0.5792
  315SOL    HW1  764   4.179   0.789   2.680 -1.9300 -0.0347  1.2591
  315SOL    HW2  765   4.182   0.939   2.615  0.6004 -1.2297 -1.6697
  316SOL     OW  766   1.227   4.991   4.808 -0.1317  0.2875  0.5199
  316SOL    HW1  767   1.206   5.027   4.717 -2.1873  1.3424  1.3624
  316SOL    HW2  768   1.308   5.037   4.845  1.0172 -0.4878 -0.9097
  317SOL     OW  769   0.743   4.706   1.152 -0.0819 -0.7067  0.8427
  317SOL    HW1  770   0.676   4.724   1.224  0.0448  1.9690  0.3668
  317SOL    HW2  771   0.832   4.686   1.194 -0.6040 -1.9296  1.4295
  318SOL     OW  772   0.105   0.851   1.146 -0.4465 -0.2719  0.0083
  318SOL    HW1  773   0.074   0.913   1.074 -0.2422 -0.1225  0.0483
  318SOL    HW2  774   0.191   0.807   1.118 -0.4004 -0.2625  0.1325
  319SOL     OW  775   2.504   4.706   1.015 -0.0957 -0.1162  0.0911
  319SOL    HW1  776   2.578   4.746   0.960  0.0001 -0.3761  0.0304
  319SOL    HW2  777   2.491   4.760   1.097 -2.4927  2.3573 -1.7300
  320SOL     OW  778   1.949   0.544   0.939  0.2275 -0.2832 -0.2607
  320SOL    HW1  779   1.849   0.539   0.934 -0.3241  0.5644  4.6839
  320SOL    HW2  780   1.978   0.640   0.936  0.2770 -0.1152  2.5194
  321SOL     OW  781   1.254   1.327   3.888  0.1248 -0.0295 -0.3017
  321SOL    HW1  782   1.181   1.361   3.829 -0.1071 -0.1175 -0.0678
  321SOL    HW2  783   1.216   1.303   3.977  0.7628  1.8670  0.5443
  322SOL     OW  784   0.563   1.726   1.903 -0.8220 -0.0559 -0.5262
  322SOL    HW1  785   0.486   1.663   1.893  0.2202 -1.4418 -0.2337
  322SOL    HW2  786   0.635   1.682   1.957 -0.5876  1.9190  0.8860
  323SOL     OW  787   4.478   5.080   4.980 -0.2427  0.0246 -0.2401
  323SOL    HW1  788   4.567   5.037   4.995 -0.1740  0.1442 -0.3079
  323SOL    HW2  789   4.424   5.024   4.917 -0.0384  0.1927 -0.5668
  324SOL     OW  790   0.480   0.115   4.554  0.1456 -0.2556  0.5454
  324SOL    HW1  791   0.449   0.179   4.625  1.2495  0.7529  0.1448
  324SOL    HW2  792   0.401   0.067   4.516 -0.3984 -1.6264  3.1703
  325SOL     OW  793   0.636   0.773   1.155  0.1844  0.2038  0.1834
  325SOL    HW1  794   0.622   0.784   1.254  0.3672  0.1012  0.2235
  325SOL    HW2  795   0.714   0.711   1.140  2.0742  2.4973 -0.0058
  326SOL     OW  796   4.570   0.639   1.248 -0.0742 -0.0533  0.1476
  326SOL    HW1  797   4.614   0.692   1.320  0.9681 -1.1443  0.3243
  326SOL    HW2  798   4.470   0.646   1.258  0.0446  1.2601  0.5975
  327SOL     OW  799   0.132   1.350   2.309 -0.3494 -0.4100  0.0831
  327SOL    HW1  800   0.231   1.339   2.299 -0.0071  2.5786 -0.8768
  327SOL    HW2  801   0.091   1.367   2.219 -1.0452  2.3793  0.8293
  328SOL     OW  802   4.561   1.638   1.688 -0.0927  0.6697 -0.9088
  328SOL    HW1  803   4.623   1.591   1.751 -0.6212  0.3851 -0.5962
  328SOL    HW2  804   4.613   1.675   1.611  0.8395  2.5269  0.5347
  329SOL     OW  805   1.994   4.469   0.786 -0.2761 -0.6251  0.7136
  329SOL    HW1  806   1.996   4.540   0.856 -2.6356  1.6748 -1.3351
  329SOL    HW2  807   1.980   4.380   0.829 -1.4404  0.6690  3.2069
  330SOL     OW  808   4.461   5.059   3.815  0.6981  0.2076 -0.1136
  330SOL    HW1  809   4.362   5.058   3.804  0.6612 -0.1021  0.2219
  330SOL    HW2  810   4.505   5.051   3.726  0.4165 -0.7901 -0.1671
  331SOL     OW  811   0.440   0.061   1.273  0.3648  0.5526  0.1193
  331SOL    HW1  812   0.397  -0.004   1.211 -1.1191  1.0333  0.5925
  331SOL    HW2  813   0.435   0.153   1.234  0.5001  0.6845  0.4072
  332SOL     OW  814   4.098   1.510   2.079  0.5221 -0.0377  0.1999
  332SOL    HW1  815   4.105   1.572   2.002 -0.3933  1.1644  1.0538
  332SOL    HW2  816   4.018   1.452   2.068 -0.2788  0.9331  0.7872
  333SOL     OW  817   0.758   1.159   0.383  0.4399 -0.1223  0.1864
  333SOL    HW1  818   0.771   1.251   0.421  0.1257 -0.2446  0.6059
  333SOL    HW2  819   0.661   1.146   0.360  0.3440 -0.5933  0.8098
  334SOL     OW  820   0.777   0.012   0.595  0.6451  0.0541 -0.1259
  334SOL    HW1  821   0.859   0.043   0.546  0.1473  0.4467 -0.7221
  334SOL    HW2  822   0.784  -0.086   0.611  1.9776  0.3341  1.2748
  335SOL     OW  823   1.366   0.067   1.334 -0.5269 -0.0972  0.2016
  335SOL    HW1  824   1.320   0.155   1.325 -0.5062 -0.1304 -0.2950
  335SOL    HW2  825   1.299  -0.003   1.359 -1.1379 -0.4714 -2.1653
  336SOL     OW  826   0.423   1.409   1.035 -0.0753  0.3587  0.7397
  336SOL    HW1  827   0.486   1.440   0.964 -0.5491 -0.7323 -0.1967
  336SOL    HW2  828   0.468   1.338   1.090  0.1879  0.9958  1.3686
  337SOL     OW  829   0.340   1.726   0.728  0.1851  0.3997  0.5644
  337SOL    HW1  830   0.370   1.775   0.646  0.4486 -0.8895 -0.1306
  337SOL    HW2  831   0.404   1.652   0.748 -1.1431 -0.7744  0.5598
  338SOL     OW  832   0.272   4.478   1.394  0.0293 -0.0355  0.0411
  338SOL    HW1  833   0.302   4.460   1.301  0.6074 -0.3456  0.2851
  338SOL    HW2  834   0.268   4.392   1.446 -0.3165  0.1301  0.2998
  339SOL     OW  835   2.133   0.673   1.940 -0.1023  0.6724  0.0253
  339SOL    HW1  836   2.192   0.752   1.922 -0.9208  1.9187  2.3578
  339SOL    HW2  837   2.176   0.616   2.010 -0.3206 -0.0288 -0.4056
  340SOL     OW  838   2.385   5.061   1.734 -0.1245 -0.3606  0.0115
  340SOL    HW1  839   2.452   5.057   1.660  0.1017 -1.2740  0.2519
  340SOL    HW2  840   2.433   5.072   1.821 -0.3819  0.5664  0.0453
  341SOL     OW  841   0.568   0.110   3.907 -0.3505 -0.1571 -0.1668
  341SOL    HW1  842   0.647   0.108   3.967  0.0152 -1.4683 -0.6599
  341SOL    HW2  843   0.597   0.097   3.812 -1.2036 -1.8194 -0.2501
  342SOL     OW  844   1.307   0.813   3.323  0.0775  0.5069  0.7280
  342SOL    HW1  845   1.252   0.770   3.395  0.7315  1.0319  1.5555
  342SOL    HW2  846   1.404   0.801   3.343  0.3514  3.4100  1.7257
  343SOL     OW  847   1.249   0.895   2.192 -0.1606 -0.0595 -0.0285
  343SOL    HW1  848   1.264   0.978   2.247  2.1262 -0.8598  0.6895
  343SOL    HW2  849   1.161   0.855   2.216  0.1563  0.3751  2.1105
  344SOL     OW  850   1.268   0.138   4.265 -0.4557 -0.3441 -0.1352
  344SOL    HW1  851   1.232   0.222   4.224  0.4987  1.9906  3.3189
  344SOL    HW2  852   1.367   0.134   4.252 -0.3465 -0.3223  0.6399
  345SOL     OW  853   4.703   0.720   2.051 -0.0347 -0.2839 -0.4790
  345SOL    HW1  854   4.774   0.788   2.034 -1.9212  2.8097  2.7344
  345SOL    HW2  855   4.712   0.684   2.143 -1.7651 -0.9582 -0.5430
  346SOL     OW  856   1.071   1.383   3.083 -0.2714  0.5342  0.0530
  346SOL    HW1  857   1.156   1.428   3.055 -1.0799  0.9954 -1.8005
  346SOL    HW2  858   1.084   1.340   3.173  2.1251 -0.0087 -0.4793
  347SOL     OW  859   1.729   1.685   2.003 -0.6430 -0.1321 -0.3251
  347SOL    HW1  860   1.747   1.619   2.077  0.5645  0.7990  0.2512
  347SOL    HW2  861   1.706   1.635   1.920 -2.4329 -1.2048  0.7502
  348SOL     OW  862   1.187   2.137   2.742  0.8187 -0.0027  0.4519
  348SOL    HW1  863   1.264   2.174   2.793  1.7099 -0.8001 -0.2974
  348SOL    HW2  864   1.212   2.051   2.699 -0.5111 -0.3193  0.2435
  349SOL     OW  865   2.281   0.749   2.278 -0.2775 -0.0994  0.3838
  349SOL    HW1  866   2.325   0.737   2.368 -0.3605 -1.1748  0.2871
  349SOL    HW2  867   2.292   0.666   2.224 -1.8459 -0.1522  0.0984
  350SOL     OW  868   0.117   2.123   3.079  0.0481 -0.5862  0.0671
  350SOL    HW1  869   0.086   2.042   3.028 -0.3664  0.5376 -1.5661
  350SOL    HW2  870   0.048   2.149   3.146 -0.0353 -1.2891  0.2590
  351SOL     OW  871   0.412   0.260   3.457  0.2413  0.2379  0.0107
  351SOL    HW1  872   0.389   0.170   3.492  0.2555  0.2057 -0.0626
  351SOL    HW2  873   0.369   0.273   3.368  0.8977 -0.0076 -0.3435
  352SOL     OW  874   1.318   1.082   2.391  0.6258  0.8529 -0.4743
  352SOL    HW1  875   1.313   1.018   2.468  0.3136  0.2953 -0.9520
  352SOL    HW2  876   1.393   1.147   2.406  2.4902 -1.0542 -1.0733
  353SOL     OW  877   0.350   2.525   3.460 -0.2438  0.4832 -0.1582
  353SOL    HW1  878   0.294   2.593   3.412 -0.6126  0.4052  0.1591
  353SOL    HW2  879   0.439   2.518   3.415 -0.3594  0.8636 -0.4539
  354SOL     OW  880   4.896   2.434   3.818  0.7696  0.2639 -0.9577
  354SOL    HW1  881   4.819   2.391   3.770  2.0204  0.6016 -3.4432
  354SOL    HW2  882   4.928   2.513   3.766  0.9938  1.8913  1.5308
  355SOL     OW  883   1.301   1.399   2.910 -0.2960 -0.1193 -0.0883
  355SOL    HW1  884   1.259   1.422   2.823  0.2713 -2.2583 -0.9943
  355SOL    HW2  885   1.374   1.463   2.930 -1.5861  1.4754 -0.2577
  356SOL     OW  886   1.833   1.663   3.201 -0.1580 -0.2239 -0.2372
  356SOL    HW1  887   1.842   1.609   3.117  2.5922 -0.6490  0.2460
  356SOL    HW2  888   1.776   1.614   3.266  0.9555 -1.8144 -0.4082
  357SOL     OW  889   2.030   0.263   2.041  0.1004 -0.2370 -0.6345
  357SOL    HW1  890   2.073   0.347   2.010  0.9651 -1.0598 -1.7719
  357SOL    HW2  891   1.954   0.240   1.980  0.5086 -0.7995 -0.9376
  358SOL     OW  892   0.842   0.534   2.643 -0.3775 -0.2459 -0.2623
  358SOL    HW1  893   0.793   0.468   2.587 -0.3685  0.2687 -0.8925
  358SOL    HW2  894   0.812   0.527   2.738  0.2818 -1.7625 -0.1463
  359SOL     OW  895   1.840   1.784   2.701 -0.0723  0.0774  0.7120
  359SOL    HW1  896   1.937   1.776   2.725  0.0443  0.4810  0.3840
  359SOL    HW2  897   1.827   1.864   2.643 -0.5139 -0.2932  0.2928
  360SOL     OW  898   5.041   1.824   3.177  0.1185 -0.1264 -0.1622
  360SOL    HW1  899   4.971   1.753   3.180 -0.1527  0.1757  0.8330
  360SOL    HW2  900   5.071   1.836   3.082 -0.4178 -0.9868 -0.4563
  361SOL     OW  901   4.531   1.033   3.466 -0.4633 -0.1424 -0.0351
  361SOL    HW1  902   4.471   0.954   3.479 -0.2967 -0.5873 -1.7811
  361SOL    HW2  903   4.619   1.003   3.428 -0.2998  0.8564 -0.4888
  362SOL     OW  904   4.953   1.943   3.804 -0.6304 -0.2950 -0.3465
  362SOL    HW1  905   4.946   1.915   3.708 -0.6846  1.9738 -1.0650
  362SOL    HW2  906   4.873   1.998   3.829  1.0905  2.3288 -0.2107
  363SOL     OW  907   0.351   0.875   2.428  0.1248  0.5255 -0.0404
  363SOL    HW1  908   0.304   0.857   2.342  1.0912  4.0743 -1.5031
  363SOL    HW2  909   0.443   0.838   2.426  0.4266  1.2901 -0.9397
  364SOL     OW  910   0.843   0.495   1.873  0.3975  0.2316  0.4533
  364SOL    HW1  911   0.749   0.530   1.880  0.5428  0.3500  2.3377
  364SOL    HW2  912   0.905   0.557   1.923  1.1786 -0.8515  0.8642
  365SOL     OW  913   4.834   0.568   1.787  0.1944 -0.2632  0.3987
  365SOL    HW1  914   4.800   0.522   1.869 -1.2334  0.7906  0.4526
  365SOL    HW2  915   4.768   0.637   1.758  1.2746  0.2833 -0.9013
  366SOL     OW  916   2.118   2.051   0.438  0.1443 -0.1179  0.2888
  366SOL    HW1  917   2.159   2.142   0.434  0.4012 -0.2414 -2.7878
  366SOL    HW2  918   2.190   1.982   0.445  0.4519 -0.2241 -2.6705
  367SOL     OW  919   0.317   0.882   2.953  0.4165  0.5959  0.3562
  367SOL    HW1  920   0.304   0.824   2.872  0.2842  0.2445  0.6256
  367SOL    HW2  921   0.234   0.878   3.010  1.1248 -0.5018  1.3537
  368SOL     OW  922   0.665   0.790   2.655 -0.1668  0.6281  0.0594
  368SOL    HW1  923   0.661   0.792   2.555  1.1995  1.1122 -0.0052
  368SOL    HW2  924   0.751   0.747   2.684 -0.7032  0.1806  1.0396
  369SOL     OW  925   1.048   0.761   1.039 -0.2440 -0.1714 -0.1022
  369SOL    HW1  926   1.069   0.770   1.137 -1.6278  1.1799  0.1046
  369SOL    HW2  927   1.130   0.731   0.991  1.0661  1.1323  1.1853
  370SOL     OW  928   0.631   4.768   2.357 -0.1711  0.2867  0.8098
  370SOL    HW1  929   0.546   4.811   2.389 -0.6956 -0.1021 -0.0203
  370SOL    HW2  930   0.638   4.676   2.394 -0.0249  0.3753  1.0069
  371SOL     OW  931   1.483   1.296   2.396  0.1169  0.4040  0.7459
  371SOL    HW1  932   1.474   1.342   2.308  0.6798 -0.4903  0.1963
  371SOL    HW2  933   1.558   1.337   2.447 -0.1022  0.8175  0.7362
  372SOL     OW  934   0.242   1.685   3.750  0.1126 -0.5518  0.5161
  372SOL    HW1  935   0.300   1.658   3.827 -2.3319 -0.9218  2.3364
  372SOL    HW2  936   0.215   1.781   3.760  0.3092 -0.4056 -0.2732
  373SOL     OW  937   0.625   1.214   3.151  0.3829  0.1131  0.2882
  373SOL    HW1  938   0.687   1.283   3.113 -0.9251  0.7766 -0.7402
  373SOL    HW2  939   0.631   1.130   3.099 -0.3955  0.5637 -0.5596
  374SOL     OW  940   0.086   1.201   3.638  0.0884 -0.0559  0.8231
  374SOL    HW1  941   0.135   1.264   3.577  2.2417 -0.6827  1.8188
  374SOL    HW2  942  -0.012   1.222   3.635  0.5951  2.6951  0.3683
  375SOL     OW  943   2.600   0.217   2.715  0.0209 -0.1886 -0.6180
  375SOL    HW1  944   2.539   0.295   2.730 -0.3260 -0.9361  2.6928
  375SOL    HW2  945   2.685   0.231   2.766 -0.2211 -2.0855  0.4077
  376SOL     OW  946   0.589   1.120   4.122 -0.4201 -0.4224  0.1961
  376SOL    HW1  947   0.624   1.211   4.145  1.0651 -0.8815 -0.1293
  376SOL    HW2  948   0.554   1.120   4.028 -1.5841  0.1146  0.6188
  377SOL     OW  949   1.019   4.758   3.558  0.3979 -0.4667  0.2670
  377SOL    HW1  950   1.080   4.763   3.480  0.2917  0.8681  0.2517
  377SOL    HW2  951   0.958   4.679   3.547 -1.1079  0.9033 -2.1320
  378SOL     OW  952   0.824   1.225   1.985  0.3517 -0.8177 -0.0836
  378SOL    HW1  953   0.724   1.227   1.983  0.3217 -1.9720 -1.4684
  378SOL    HW2  954   0.856   1.221   2.079 -0.8445  1.0498  0.4521
  379SOL     OW  955   0.351   1.423   1.533  0.2488  0.3147 -0.1659
  379SOL    HW1  956   0.302   1.430   1.620  0.1639 -0.1729 -0.1685
  379SOL    HW2  957   0.303   1.358   1.474 -0.1851  1.3001 -0.9096
  380SOL     OW  958   0.220   0.085   3.298  0.5566 -0.0799 -0.3367
  380SOL    HW1  959   0.189   0.019   3.230  2.2191  0.1093 -1.3510
  380SOL    HW2  960   0.200   0.178   3.266  0.7935 -0.0142 -0.3003
  381SOL     OW  961   3.325   0.371   2.080 -0.0826 -0.6990 -0.0895
  381SOL    HW1  962   3.244   0.313   2.091 -0.4497 -0.1361  0.2085
  381SOL    HW2  963   3.298   0.467   2.089  0.3689 -0.4297 -1.4366
  382SOL     OW  964   0.794   1.951   1.548  0.3961  0.2510  0.5849
  382SOL    HW1  965   0.792   1.851   1.546  0.5074  0.2597 -0.3424
  382SOL    HW2  966   0.734   1.984   1.621 -1.9553 -0.4300 -0.9560
  383SOL     OW  967   0.706   1.670   3.939 -0.4441  0.1201 -0.4316
  383SOL    HW1  968   0.717   1.749   3.878 -2.7537 -0.2390 -1.4218
  383SOL    HW2  969   0.610   1.660   3.963  0.0947 -1.2231  1.3374
  384SOL     OW  970   4.760   4.884   3.180  0.1786  0.5617  0.2218
  384SOL    HW1  971   4.815   4.966   3.172 -1.0229  1.4116  0.3512
  384SOL    HW2  972   4.769   4.846   3.272  0.1700  0.9830  0.3982
  385SOL     OW  973   1.709   1.126   2.129 -0.0345  0.0661  0.3550
  385SOL    HW1  974   1.722   1.029   2.107  2.1043  0.4612 -0.3492
  385SOL    HW2  975   1.754   1.147   2.216  2.0461  0.9372 -0.8411
  386SOL     OW  976   1.467   4.778   2.268  0.2377  0.0626  0.0523
  386SOL    HW1  977   1.382   4.802   2.222  0.0594  1.0139  0.8419
  386SOL    HW2  978   1.545   4.815   2.217  0.1865 -0.7024 -0.6024
  387SOL     OW  979   1.188   1.855   1.177  0.6468  0.1033  0.7520
  387SOL    HW1  980   1.116   1.884   1.239  0.5204 -0.1540  0.7254
  387SOL    HW2  981   1.275   1.849   1.226  0.3726 -0.9918  1.1171
  388SOL     OW  982   4.568   0.493   2.263 -0.3566  0.1189  0.0682
  388SOL    HW1  983   4.647   0.553   2.278 -1.8442  2.0157  0.6851
  388SOL    HW2  984   4.558   0.431   2.340 -0.2531  0.7988  0.6391
  389SOL     OW  985   5.024   2.938   4.078 -0.0708  0.6529  0.1071
  389SOL    HW1  986   5.056   2.900   4.165 -0.6597  2.3055  1.1054
  389SOL    HW2  987   5.032   2.869   4.006  0.5266 -0.7342  1.4436
  390SOL     OW  988   0.360   0.273   1.783 -0.2877  0.0911 -0.3948
  390SOL    HW1  989   0.393   0.280   1.878  1.9046 -0.6820 -1.0521
  390SOL    HW2  990   0.272   0.226   1.783 -0.2425 -0.0849  1.2583
  391SOL     OW  991   1.567   4.971   3.328 -0.1793  0.0428 -0.1704
  391SOL    HW1  992   1.574   4.873   3.310 -1.1601 -0.0084 -0.3476
  391SOL    HW2  993   1.578   5.022   3.243 -0.2656  0.0511 -0.1769
  392SOL     OW  994   1.589   2.514   2.185 -0.1348  0.7397 -0.6351
  392SOL    HW1  995   1.644   2.446   2.235 -3.6310 -1.7956  0.1360
  392SOL    HW2  996   1.577   2.484   2.091 -0.6454  0.9514 -0.6396
  393SOL     OW  997   0.656   0.872   3.202 -0.1389  0.5387 -0.3870
  393SOL    HW1  998   0.706   0.792   3.168 -0.0059  0.4104  0.1038
  393SOL    HW2  999   0.599   0.910   3.129  0.1511  0.2714 -0.7521
  394SOL     OW 1000   4.989   2.213   0.720  0.4766 -0.5370 -0.0014
  394SOL    HW1 1001   4.901   2.183   0.756 -0.0333  0.2244 -0.5941
  394SOL    HW2 1002   5.027   2.140   0.663 -0.5873 -0.2435 -1.1346
  395SOL     OW 1003   1.206   1.881   2.592  0.4518  0.0701 -0.0433
  395SOL    HW1 1004   1.283   1.838   2.545  1.7418  2.2998 -0.1114
  395SOL    HW2 1005   1.144   1.810   2.628  1.7933 -1.7458 -1.1724
  396SOL     OW 1006   2.514   1.643   2.421 -0.9346  0.1801  0.1349
  396SOL    HW1 1007   2.494   1.719   2.359 -2.4574  0.5879  1.0657
  396SOL    HW2 1008   2.468   1.560   2.388 -0.0305 -0.1212 -0.3862
  397SOL     OW 1009   0.908   1.837   3.188 -0.5297 -0.1779  0.2846
  397SOL    HW1 1010   0.881   1.899   3.116 -2.6953  0.5429  1.6319
  397SOL    HW2 1011   0.827   1.793   3.227  0.4157  0.2575  2.9512
  398SOL     OW 1012   0.285   0.914   2.148 -0.4540  0.2805  0.0362
  398SOL    HW1 1013   0.257   0.829   2.104  1.8650  0.9821 -3.0936
  398SOL    HW2 1014   0.210   0.980   2.143 -0.8858 -0.2758 -1.2401
  399SOL     OW 1015   2.187   4.592   1.699  0.1101 -0.8472  1.0783
  399SOL    HW1 1016   2.139   4.614   1.614 -0.5544  0.8993  1.8527
  399SOL    HW2 1017   2.212   4.495   1.699 -0.3529 -1.0086 -0.8535
  400SOL     OW 1018   5.001   2.045   3.424  0.3614 -0.6750  0.0863
  400SOL    HW1 1019   5.079   2.075   3.479 -0.0081  0.2234  0.1401
  400SOL    HW2 1020   4.988   1.946   3.435 -0.4040 -0.3707  2.5525
  401SOL     OW 1021   1.109   2.011   0.625  0.1244 -0.3043  0.4186
  401SOL    HW1 1022   1.167   1.933   0.648  0.4665  0.0960  0.9325
  401SOL    HW2 1023   1.018   1.998   0.665 -0.2806 -1.1287 -0.7374
  402SOL     OW 1024   1.319   0.235   3.423 -0.8302 -0.1394 -0.4791
  402SOL    HW1 1025   1.285   0.253   3.515 -0.8079  0.7661 -0.6409
  402SOL    HW2 1026   1.317   0.136   3.406 -1.6403 -0.2499  0.1733
  403SOL     OW 1027   1.075   1.617   1.611 -0.6134  0.7237 -0.4106
  403SOL    HW1 1028   1.142   1.643   1.541 -0.5517 -0.0041 -0.6280
  403SOL    HW2 1029   0.983   1.631   1.575 -0.5829  0.1308 -0.7259
  404SOL     OW 1030   0.798   1.656   2.046 -0.5208 -0.1607 -0.7482
  404SOL    HW1 1031   0.851   1.710   1.982  1.2836 -2.0697 -0.9702
  404SOL    HW2 1032   0.805   1.696   2.138  2.5281 -1.0548 -0.4835
  405SOL     OW 1033   5.074   0.152   2.100 -0.1145 -0.2878  0.0679
  405SOL    HW1 1034   5.093   0.219   2.028  2.0727  0.4880  1.2556
  405SOL    HW2 1035   5.082   0.059   2.062 -0.7736  0.0984 -1.0565
  406SOL     OW 1036   4.349   2.675   0.083 -0.1120  0.2473  0.6236
  406SOL    HW1 1037   4.436   2.634   0.110  0.0497  0.7346  0.8432
  406SOL    HW2 1038   4.306   2.717   0.163 -0.7614 -0.3808  0.6101
  407SOL     OW 1039   0.435   1.868   2.643 -0.4302 -0.1497  0.3071
  407SOL    HW1 1040   0.453   1.780   2.688 -0.6117 -0.0928  0.4956
  407SOL    HW2 1041   0.497   1.879   2.566 -1.0782 -0.9095 -0.3478
  408SOL     OW 1042   0.803   0.949   2.256 -0.4149  0.4868 -0.0937
  408SOL    HW1 1043   0.715   0.961   2.209 -0.4296  1.3241  0.1306
  408SOL    HW2 1044   0.862   1.027   2.235  0.7886 -0.7162 -1.3447
  409SOL     OW 1045   1.694   1.478   3.655 -0.0363 -0.2639 -0.5338
  409SOL    HW1 1046   1.745   1.549   3.703 -0.9693  1.2639 -1.7024
  409SOL    HW2 1047   1.628   1.436   3.718  0.4664 -0.0398  0.1518
  410SOL     OW 1048   1.638   1.380   2.634 -0.4315 -0.0463  0.6401
  410SOL    HW1 1049   1.574   1.319   2.680 -0.2466 -1.7123 -1.2002
  410SOL    HW2 1050   1.726   1.378   2.682 -0.3129 -1.5570  0.4062
  411SOL     OW 1051   4.741   0.755   3.582  0.3574  0.0733  0.4889
  411SOL    HW1 1052   4.706   0.671   3.540  0.1992 -0.0459  0.8620
  411SOL    HW2 1053   4.680   0.784   3.656  0.3130  0.6168  0.2500
  412SOL     OW 1054   0.795   2.488   3.457 -0.8878 -1.1232 -0.3591
  412SOL    HW1 1055   0.806   2.388   3.463 -1.4617 -1.1234  1.5229
  412SOL    HW2 1056   0.779   2.524   3.549 -0.4521  0.7465 -0.9864
  413SOL     OW 1057   1.769   0.474   2.794  0.6234  0.2231 -0.0776
  413SOL    HW1 1058   1.734   0.491   2.886 -0.0585 -0.1765 -0.2569
  413SOL    HW2 1059   1.694   0.480   2.728  1.4236  2.4765 -0.8682
  414SOL     OW 1060   1.095   1.727   3.451 -0.3701  0.2147  0.8038
  414SOL    HW1 1061   1.045   1.734   3.365 -0.5203  2.6847  1.0231
  414SOL    HW2 1062   1.038   1.679   3.518 -2.0158  1.8545  0.6804
  415SOL     OW 1063   1.115   0.684   3.485  0.2889  0.5088 -0.2061
  415SOL    HW1 1064   1.026   0.693   3.441 -0.0699  0.0369  0.3934
  415SOL    HW2 1065   1.102   0.677   3.584  1.0610  1.3323 -0.0378
  416SOL     OW 1066   0.886   4.296   2.334 -0.0186  0.1983  1.0469
  416SOL    HW1 1067   0.971   4.302   2.282  0.5035 -0.8810  1.7449
  416SOL    HW2 1068   0.821   4.238   2.284 -0.6391  1.6109  0.1583
  417SOL     OW 1069   1.582   1.804   1.619 -0.2280 -0.2674 -0.0103
  417SOL    HW1 1070   1.670   1.851   1.621  0.0536 -0.7750  2.1543
  417SOL    HW2 1071   1.583   1.737   1.545  0.6593  0.6973 -0.9142
  418SOL     OW 1072   4.912   0.324   2.641  0.0362 -0.0558 -0.4222
  418SOL    HW1 1073   4.966   0.322   2.556  0.2024 -0.0185 -0.3198
  418SOL    HW2 1074   4.971   0.296   2.717  0.0496  0.4854 -0.2325
  419SOL     OW 1075   1.908   4.401   1.150 -0.1719 -0.3364 -0.1791
  419SOL    HW1 1076   1.986   4.364   1.201  0.9453  1.8355 -0.1798
  419SOL    HW2 1077   1.906   4.359   1.059  0.4570 -1.0775  0.1326
  420SOL     OW 1078   1.041   0.704   2.569  0.4960  0.0807 -0.3342
  420SOL    HW1 1079   0.978   0.628   2.585 -1.7437  1.2298 -2.9089
  420SOL    HW2 1080   1.011   0.784   2.622  1.2545 -0.0191  0.2725
  421SOL     OW 1081   1.729   1.135   2.838  0.0117 -0.2764  0.0131
  421SOL    HW1 1082   1.632   1.120   2.822  0.2771 -1.6514 -0.4717
  421SOL    HW2 1083   1.775   1.047   2.848  0.9542  0.3657  1.8960
  422SOL     OW 1084   0.347   0.778   2.701  0.0944 -0.1720  0.3960
  422SOL    HW1 1085   0.318   0.852   2.641  0.6124  0.7417  1.2372
  422SOL    HW2 1086   0.446   0.765   2.692 -0.4161 -3.4696 -2.6971
  423SOL     OW 1087   0.485   1.768   2.979 -0.0549  0.0848  0.0986
  423SOL    HW1 1088   0.495   1.868   2.980  1.3468 -0.0348  0.5797
  423SOL    HW2 1089   0.469   1.736   3.073 -3.3630  0.0501 -0.3567
  424SOL     OW 1090   0.162   2.066   4.432  0.5737  0.1503 -0.9023
  424SOL    HW1 1091   0.102   2.143   4.412 -1.3675 -1.7275 -2.8216
  424SOL    HW2 1092   0.108   1.982   4.438  2.5845 -1.1107  1.2367
  425SOL     OW 1093   4.993   1.163   3.355 -0.9375  0.2920 -0.0074
  425SOL    HW1 1094   4.911   1.107   3.356 -0.0559 -1.0347  0.4880
  425SOL    HW2 1095   4.970   1.256   3.382 -2.4650  0.2455 -1.0200
  426SOL     OW 1096   0.907   0.839   2.780 -0.8935 -0.2899  0.4735
  426SOL    HW1 1097   0.875   0.927   2.816 -0.2862 -0.0224  0.3687
  426SOL    HW2 1098   0.976   0.801   2.842 -0.0985  0.0013 -0.2325
  427SOL     OW 1099   0.901   1.209   2.234 -0.5261  0.2073 -0.1018
  427SOL    HW1 1100   0.987   1.213   2.283 -0.0670 -0.8532 -0.7934
  427SOL    HW2 1101   0.827   1.243   2.292 -0.3952 -3.0388  2.1957
  428SOL     OW 1102   1.460   0.250   3.201  0.2706 -0.1175  0.1859
  428SOL    HW1 1103   1.406   0.255   3.286  0.5295  0.5295  0.3163
  428SOL    HW2 1104   1.462   0.340   3.157  2.2492  0.2110  0.8216
  429SOL     OW 1105   2.847   1.300   2.811  1.0325  0.2037  0.0721
  429SOL    HW1 1106   2.887   1.209   2.807 -0.1636 -0.3087 -0.5485
  429SOL    HW2 1107   2.812   1.317   2.903  1.4515  0.1284  0.2478
  430SOL     OW 1108   3.058   0.265   1.780 -0.0145  0.0241 -0.2320
  430SOL    HW1 1109   3.016   0.317   1.855  1.3421  1.7273 -0.6121
  430SOL    HW2 1110   3.153   0.294   1.768 -0.3855  0.3520 -3.0991
  431SOL     OW 1111   0.210   1.298   2.935 -0.3342  0.0816 -0.0239
  431SOL    HW1 1112   0.264   1.316   3.017 -1.5961  1.9500  0.4586
  431SOL    HW2 1113   0.266   1.313   2.853  0.7204 -1.0760  0.4571
  432SOL     OW 1114   2.365   1.411   2.371  0.5626  0.5770 -0.4023
  432SOL    HW1 1115   2.273   1.372   2.364  0.5483  0.6866 -0.8461
  432SOL    HW2 1116   2.432   1.336   2.376  0.3887  0.4878  0.9418
  433SOL     OW 1117   2.262   0.018   2.536  0.0860  0.5549  0.5178
  433SOL    HW1 1118   2.188   0.040   2.599  0.7426  0.0412  1.4912
  433SOL    HW2 1119   2.234  -0.059   2.478 -0.1544  0.3653  0.8786
  434SOL     OW 1120   0.562   0.054   2.705 -0.0088  0.0123  0.0674
  434SOL    HW1 1121   0.540  -0.042   2.723  2.6105 -0.7457 -0.3535
  434SOL    HW2 1122   0.535   0.077   2.611  2.2955 -1.3791 -1.0283
  435SOL     OW 1123   0.996   0.111   3.203  0.1341  1.5758  0.3500
  435SOL    HW1 1124   0.913   0.146   3.161 -0.3805 -1.3402 -1.3741
  435SOL    HW2 1125   1.075   0.131   3.144 -0.0715  0.5011 -0.3259
  436SOL     OW 1126   0.425   1.681   3.230 -0.2669  0.1143 -0.3327
  436SOL    HW1 1127   0.350   1.739   3.261 -0.8544 -0.1676 -1.1886
  436SOL    HW2 1128   0.410   1.588   3.262  0.4950  0.3396  0.7427
  437SOL     OW 1129   1.460   1.987   3.521  0.2409  0.4002 -0.3215
  437SOL    HW1 1130   1.408   2.022   3.598  1.3104 -0.5913  0.8994
  437SOL    HW2 1131   1.399   1.937   3.459 -0.3502 -0.3639  0.8521
  438SOL     OW 1132   0.158   2.305   3.378  0.4922 -0.0524  0.0139
  438SOL    HW1 1133   0.223   2.375   3.407 -0.5025  0.7301  0.4045
  438SOL    HW2 1134   0.078   2.307   3.439 -0.3580 -0.2967 -1.0720
  439SOL     OW 1135   1.452   1.773   2.541 -0.4861 -0.3161  0.7606
  439SOL    HW1 1136   1.455   1.806   2.635 -0.5503 -0.2349  0.7344
  439SOL    HW2 1137   1.530   1.713   2.524  0.0821  0.4503  0.5771
  440SOL     OW 1138   4.714   1.406   3.966  0.0531 -0.9351  0.4177
  440SOL    HW1 1139   4.802   1.410   3.919 -0.8736  0.9605 -1.3173
  440SOL    HW2 1140   4.696   1.493   4.011 -1.8305 -0.4941 -1.0700
  441SOL     OW 1141   1.040   1.823   4.907 -0.2580 -0.4431 -0.4326
  441SOL    HW1 1142   1.099   1.903   4.898  0.0438 -0.7045 -0.8761
  441SOL    HW2 1143   0.948   1.851   4.932  0.1161 -0.0475  0.5197
  442SOL     OW 1144   1.006   0.785   2.300 -0.0593 -0.7392 -0.2614
  442SOL    HW1 1145   1.018   0.768   2.398 -0.3897 -1.7955 -0.3890
  442SOL    HW2 1146   0.914   0.820   2.284  0.3223  0.3856 -0.0986
  443SOL     OW 1147   1.402   1.516   3.275  0.2218  0.1487  0.0576
  443SOL    HW1 1148   1.456   1.547   3.197 -1.9546 -0.8139 -1.9596
  443SOL    HW2 1149   1.432   1.425   3.303 -1.3585 -1.1856 -2.2467
  444SOL     OW 1150   1.796   0.432   4.713 -0.2707  0.9809  0.0300
  444SOL    HW1 1151   1.776   0.530   4.709 -1.3583  0.7486 -0.7320
  444SOL    HW2 1152   1.894   0.418   4.722 -0.0522  2.1396 -0.3807
  445SOL     OW 1153   2.379   2.108   3.224 -0.2041 -0.5330  0.0469
  445SOL    HW1 1154   2.430   2.082   3.307 -0.1451  1.5699  0.7285
  445SOL    HW2 1155   2.289   2.064   3.225  0.2637 -1.5194  0.5833
  446SOL     OW 1156   1.695   1.469   2.171  0.4072 -0.1029  0.3088
  446SOL    HW1 1157   1.617   1.410   2.155 -0.4526  1.1784 -0.4262
  446SOL    HW2 1158   1.755   1.428   2.239 -1.6432 -0.4458  2.0011
  447SOL     OW 1159   1.065   4.492   3.301  0.0154 -0.0819  0.2563
  447SOL    HW1 1160   1.082   4.397   3.326 -0.1225 -0.3330 -0.5649
  447SOL    HW2 1161   1.014   4.538   3.375  0.8333 -0.3958  1.0289
  448SOL     OW 1162   0.428   1.145   4.532 -0.3320  0.3338 -0.3285
  448SOL    HW1 1163   0.381   1.057   4.525 -1.8316  1.0570  0.1469
  448SOL    HW2 1164   0.403   1.202   4.454 -0.0011  0.6261 -0.2205
  449SOL     OW 1165   2.169   1.211   2.385  0.2551  0.4228  0.1123
  449SOL    HW1 1166   2.073   1.187   2.403  0.2352 -0.6106 -1.2013
  449SOL    HW2 1167   2.211   1.140   2.328  1.0803  2.1011 -1.4776
  450SOL     OW 1168   1.512   0.556   2.432  0.0289  0.3721  1.3823
  450SOL    HW1 1169   1.440   0.605   2.482 -1.7887 -1.1374  0.3769
  450SOL    HW2 1170   1.480   0.536   2.340  1.7517 -0.4071  0.9185
  451SOL     OW 1171   5.051   1.781   3.480 -0.2419  0.2189  0.0957
  451SOL    HW1 1172   5.066   1.702   3.540  0.9670  0.3603 -0.0109
  451SOL    HW2 1173   5.075   1.757   3.386 -1.7192  0.1329 -0.2907
  452SOL     OW 1174   0.226   1.164   3.872 -0.5099 -0.7004 -0.2703
  452SOL    HW1 1175   0.188   1.187   3.782 -0.3746 -0.2234 -0.2097
  452SOL    HW2 1176   0.192   1.074   3.901  0.0549 -1.2062 -1.1363
  453SOL     OW 1177   5.055   4.856   3.578  0.5715  0.1535 -0.0994
  453SOL    HW1 1178   5.067   4.949   3.544  0.1741  0.2637  0.0480
  453SOL    HW2 1179   5.064   4.855   3.678 -1.5513  0.4319  0.1423
  454SOL     OW 1180   1.002   0.306   3.701  0.0141  0.1135  0.1421
  454SOL    HW1 1181   0.985   0.268   3.792  1.1645 -1.7905 -0.3644
  454SOL    HW2 1182   1.101   0.321   3.690 -0.0261 -0.4339 -1.0556
  455SOL     OW 1183   1.022   0.195   2.423  0.7301 -0.1063  0.0213
  455SOL    HW1 1184   1.016   0.225   2.519  1.8561  1.4162 -0.3355
  455SOL    HW2 1185   1.102   0.135   2.413  1.7546  1.2567 -0.2833
  456SOL     OW 1186   1.197   1.365   3.521 -0.3521  0.4090  0.0488
  456SOL    HW1 1187   1.134   1.344   3.446 -0.6256  3.4502 -0.7083
  456SOL    HW2 1188   1.290   1.372   3.485 -0.4979  1.9792 -0.0985
  457SOL     OW 1189   0.411   0.305   3.152  0.1045 -0.4284 -0.0710
  457SOL    HW1 1190   0.452   0.396   3.143  0.9999 -0.9464 -1.5668
  457SOL    HW2 1191   0.416   0.257   3.064 -1.3889 -1.5102  0.3863
  458SOL     OW 1192   1.908   0.627   1.601 -0.0454  0.2103  0.3357
  458SOL    HW1 1193   1.878   0.652   1.509 -2.4850  1.2881  1.3155
  458SOL    HW2 1194   1.878   0.534   1.621  1.2198 -0.3327 -0.2188
  459SOL     OW 1195   4.015   4.700   3.714  0.0808 -0.9568 -0.0986
  459SOL    HW1 1196   3.947   4.742   3.773  1.2978  1.0827 -0.0463
  459SOL    HW2 1197   3.974   4.677   3.626 -0.8924 -0.6866  0.2787
  460SOL     OW 1198   3.860   1.002   3.212 -0.3767  0.3969  0.4167
  460SOL    HW1 1199   3.948   1.036   3.179 -0.7387  0.8792 -0.0731
  460SOL    HW2 1200   3.831   0.925   3.155 -1.3155  1.6459 -0.8630
  461SOL     OW 1201   1.624   2.254   2.052 -0.5050 -0.2372 -0.1197
  461SOL    HW1 1202   1.690   2.179   2.054 -0.3399 -0.0833  1.0131
  461SOL    HW2 1203   1.546   2.232   2.111 -0.7495  0.2219 -0.2640
  462SOL     OW 1204   2.181   1.266   3.764 -0.3502 -0.6676 -0.1284
  462SOL    HW1 1205   2.160   1.320   3.682 -0.0447  1.9407  1.4002
  462SOL    HW2 1206   2.273   1.289   3.797  0.2165 -2.9496  0.0350
  463SOL     OW 1207   5.074   4.543   3.532 -0.1045 -0.1290  0.2227
  463SOL    HW1 1208   5.074   4.555   3.631 -0.1324 -0.5239  0.2718
  463SOL    HW2 1209   5.040   4.627   3.488  2.8175  1.2737  0.3979
  464SOL     OW 1210   2.010   1.038   1.432  0.3230 -0.3446 -0.1710
  464SOL    HW1 1211   2.059   1.125   1.422  0.4076 -0.2965  0.5873
  464SOL    HW2 1212   1.931   1.052   1.491  1.1511 -1.0795  1.1616
  465SOL     OW 1213   1.682   0.101   2.138  0.2478 -0.3007 -0.2057
  465SOL    HW1 1214   1.607   0.161   2.164  0.2059 -0.4014 -0.0919
  465SOL    HW2 1215   1.717   0.128   2.048  0.0158 -0.3107 -0.3011
  466SOL     OW 1216   4.492   2.975   2.439 -0.1607 -0.1281 -0.1373
  466SOL    HW1 1217   4.474   2.928   2.525  1.3928 -2.0878 -0.8130
  466SOL    HW2 1218   4.408   3.018   2.405 -0.8391  0.5357  2.2129
  467SOL     OW 1219   1.186   2.192   3.144 -0.5863 -0.4059 -0.4998
  467SOL    HW1 1220   1.104   2.230   3.102 -0.1566  1.1141 -0.0284
  467SOL    HW2 1221   1.268   2.234   3.104 -0.0823 -0.8740  0.0107
  468SOL     OW 1222   1.543   0.837   0.285  0.0770 -0.2097  0.5764
  468SOL    HW1 1223   1.560   0.914   0.223  1.5425 -1.5431 -0.7710
  468SOL    HW2 1224   1.444   0.822   0.294 -0.2427  1.8882  1.0038
  469SOL     OW 1225   3.044   4.745   1.290 -0.2052  0.5671  0.1603
  469SOL    HW1 1226   3.109   4.686   1.338  0.5633  0.8926 -0.4650
  469SOL    HW2 1227   2.951   4.707   1.299  0.2440 -0.6255 -0.0742
  470SOL     OW 1228   1.166   1.577   2.134  0.1810  0.2109  0.6107
  470SOL    HW1 1229   1.126   1.504   2.079  0.9913 -0.1979  0.5425
  470SOL    HW2 1230   1.174   1.660   2.078  0.9797 -0.1943  0.0980
  471SOL     OW 1231   0.476   2.954   3.107  0.4219 -0.5340 -0.2045
  471SOL    HW1 1232   0.445   2.859   3.108 -0.2144 -0.3330  0.2125
  471SOL    HW2 1233   0.418   3.007   3.044  0.3324 -0.2827  0.0865
  472SOL     OW 1234   1.612   0.818   3.254  0.0800 -0.3782  0.2066
  472SOL    HW1 1235   1.654   0.732   3.282  3.7875  0.5840 -1.6535
  472SOL    HW2 1236   1.632   0.889   3.322  0.1494 -0.2535  0.0589
  473SOL     OW 1237   4.928   4.740   4.601 -0.5779  0.5471  0.0407
  473SOL    HW1 1238   4.925   4.648   4.561 -1.3293  0.8331 -0.5895
  473SOL    HW2 1239   4.957   4.806   4.532  1.8154  0.5653  0.9699
  474SOL     OW 1240   1.407   0.451   3.046 -0.2498  0.0672  0.7245
  474SOL    HW1 1241   1.371   0.537   3.082 -0.9373 -0.1598  0.5945
  474SOL    HW2 1242   1.386   0.445   2.949 -0.2228 -0.2633  0.7395
  475SOL     OW 1243   1.170   1.183   4.105  0.2968  0.1565  0.4163
  475SOL    HW1 1244   1.081   1.198   4.061  0.5488  0.0626 -0.1406
  475SOL    HW2 1245   1.204   1.093   4.081  2.2457  1.4961 -2.5363
  476SOL     OW 1246   1.238   1.384   2.612  0.3383  0.3095 -0.7741
  476SOL    HW1 1247   1.326   1.362   2.569  0.1732 -0.0049 -0.9578
  476SOL    HW2 1248   1.185   1.441   2.549  0.0410 -0.2639 -1.0523
  477SOL     OW 1249   4.238   2.686   3.208  0.1944  0.2477  0.4050
  477SOL    HW1 1250   4.158   2.653   3.259  0.9299 -1.0417  0.7884
  477SOL    HW2 1251   4.309   2.714   3.272  0.3418  0.6286  0.0761
  478SOL     OW 1252   0.240   2.128   2.541 -0.1679 -0.0123  0.4621
  478SOL    HW1 1253   0.335   2.107   2.522 -0.2887  0.6778 -1.1055
  478SOL    HW2 1254   0.221   2.115   2.638  1.4698 -0.3056  0.7655
  479SOL     OW 1255   1.864   0.330   3.275 -0.1083  0.1674 -0.0812
  479SOL    HW1 1256   1.801   0.274   3.221  0.2148  0.7639 -1.1139
  479SOL    HW2 1257   1.956   0.291   3.269 -0.2988 -0.5099  1.1429
  480SOL     OW 1258   3.927   0.143   3.235 -0.2468 -0.1151  0.6234
  480SOL    HW1 1259   3.959   0.124   3.327  0.5673  1.4673  0.7059
  480SOL    HW2 1260   4.005   0.146   3.172 -0.7612 -0.8825 -0.0708
  481SOL     OW 1261   0.154   0.394   3.218 -0.3635 -0.1089  0.1326
  481SOL    HW1 1262   0.236   0.364   3.169 -0.7028 -2.1078  0.6696
  481SOL    HW2 1263   0.169   0.484   3.258  0.7081  0.6030 -1.7461
  482SOL     OW 1264   0.788   2.271   3.847 -0.4234  0.2021  0.2542
  482SOL    HW1 1265   0.705   2.280   3.792 -1.1155  0.6125  1.3288
  482SOL    HW2 1266   0.849   2.348   3.829 -1.0131  0.7773  0.6432
  483SOL     OW 1267   0.789   0.233   1.893  0.3858 -0.8467 -0.4187
  483SOL    HW1 1268   0.748   0.216   1.803 -0.8023 -0.0928 -0.0368
  483SOL    HW2 1269   0.835   0.322   1.893 -1.9498  0.4405  0.4675
  484SOL     OW 1270   0.613   1.058   2.691  0.1004  0.0135  0.3812
  484SOL    HW1 1271   0.695   1.106   2.721  0.0732 -1.1219  2.5068
  484SOL    HW2 1272   0.635   0.961   2.677 -0.4751  0.0531 -0.9498
  485SOL     OW 1273   5.034   2.411   4.056 -0.3232  0.0928  0.3707
  485SOL    HW1 1274   4.994   2.424   3.966  1.1578 -1.6172 -0.6000
  485SOL    HW2 1275   4.981   2.343   4.107  0.7247 -1.4982 -0.5699
  486SOL     OW 1276   0.679   4.661   3.127  0.3752 -0.2183 -0.0562
  486SOL    HW1 1277   0.594   4.615   3.150  0.0064  0.4420 -0.0867
  486SOL    HW2 1278   0.697   4.735   3.192 -0.3978  1.3150 -1.5036
  487SOL     OW 1279   0.486   1.663   2.314 -0.0312  0.4145  0.0640
  487SOL    HW1 1280   0.389   1.658   2.336  0.5071 -1.8952  2.5661
  487SOL    HW2 1281   0.509   1.589   2.250  0.1835  0.4606  0.0869
  488SOL     OW 1282   1.005   0.407   0.378  0.1199 -0.2542 -0.5758
  488SOL    HW1 1283   1.068   0.365   0.444  1.8162  0.4822 -1.6684
  488SOL    HW2 1284   1.004   0.352   0.294  0.1450  0.3290 -0.9601
  489SOL     OW 1285   0.661   1.786   3.305  0.1180 -0.0108 -0.2418
  489SOL    HW1 1286   0.577   1.750   3.265  0.5210  0.4073 -1.4902
  489SOL    HW2 1287   0.665   1.761   3.402 -0.1624 -2.2887 -0.7788
  490SOL     OW 1288   2.107   1.262   2.705  0.1461  0.7194  0.0920
  490SOL    HW1 1289   2.131   1.250   2.608 -1.4401  0.1673 -0.2695
  490SOL    HW2 1290   2.131   1.179   2.755 -0.9141  0.1843 -0.2578
  491SOL     OW 1291   1.505   0.336   2.601  0.2492  0.0758  0.2155
  491SOL    HW1 1292   1.510   0.418   2.545 -2.7614 -0.9961 -1.8355
  491SOL    HW2 1293   1.534   0.257   2.548  0.2350 -0.6193  1.2040
  492SOL     OW 1294   2.596   1.193   2.954  0.0596  0.0514  0.6610
  492SOL    HW1 1295   2.642   1.277   2.983  2.0712 -0.5516 -0.6186
  492SOL    HW2 1296   2.526   1.214   2.886  0.0044  0.7390  0.9216
  493SOL     OW 1297   1.415   2.346   3.071 -0.0915 -0.4346  0.6323
  493SOL    HW1 1298   1.369   2.434   3.063  0.9482  0.0215 -0.8569
  493SOL    HW2 1299   1.505   2.359   3.113 -0.0728 -0.8516  0.7316
  494SOL     OW 1300   4.708   2.045   3.829  0.0120  0.1690 -0.3550
  494SOL    HW1 1301   4.708   2.141   3.802 -0.2379 -0.0202 -1.0576
  494SOL    HW2 1302   4.644   2.031   3.904  0.4913  0.6543  0.1536
  495SOL     OW 1303   1.190   2.023   2.175  0.4297  0.7463 -0.3956
  495SOL    HW1 1304   1.110   2.031   2.235 -0.2876  0.3138 -1.2729
  495SOL    HW2 1305   1.269   1.994   2.229  0.1572  1.7718  0.5968
  496SOL     OW 1306   2.995   0.301   2.480 -0.5765  0.5166  0.1791
  496SOL    HW1 1307   3.070   0.242   2.510 -1.3117 -1.2006 -1.1225
  496SOL    HW2 1308   3.032   0.384   2.439  0.5668  0.1514  0.4274
  497SOL     OW 1309   2.673   1.054   2.072 -0.0543  0.3696  0.5584
  497SOL    HW1 1310   2.692   1.139   2.121 -1.4079 -0.0346  1.8764
  497SOL    HW2 1311   2.700   0.976   2.128 -0.8421 -0.0875  0.3274
  498SOL     OW 1312   0.431   1.747   3.567  0.3456 -0.2097 -0.5424
  498SOL    HW1 1313   0.463   1.835   3.601  0.1703 -0.0125 -0.8782
  498SOL    HW2 1314   0.348   1.721   3.615  0.4801 -0.2631 -0.3385
  499SOL     OW 1315   0.832   2.009   2.951 -0.0802  0.1870 -0.3256
  499SOL    HW1 1316   0.860   1.953   2.873 -0.8137 -1.3914  0.5058
  499SOL    HW2 1317   0.733   2.021   2.949  0.0085  1.0074 -0.1750
  500SOL     OW 1318   0.759   1.939   4.155  0.5615  0.4727  0.0843
  500SOL    HW1 1319   0.814   1.903   4.080 -0.4859  1.1548 -1.0412
  500SOL    HW2 1320   0.734   1.864   4.216 -1.9219 -0.9536 -2.4335
  501SOL     OW 1321   0.256   2.226   1.769 -0.0441 -0.1726  0.0460
  501SOL    HW1 1322   0.341   2.172   1.775  0.8594  1.2957  1.0379
  501SOL    HW2 1323   0.249   2.266   1.678  0.8358  0.4620  0.2442
  502SOL     OW 1324   2.059   0.714   3.999 -0.1845 -0.3472 -0.0470
  502SOL    HW1 1325   2.121   0.765   3.940 -2.7209  0.7189 -1.9730
  502SOL    HW2 1326   2.022   0.774   4.069  0.3439 -0.7796  0.6137
  503SOL     OW 1327   0.791   0.479   3.623 -0.5720  0.1331 -0.5035
  503SOL    HW1 1328   0.872   0.444   3.670  0.1340  1.6132 -0.5804
  503SOL    HW2 1329   0.758   0.409   3.559 -0.6991 -1.3452  1.1013
  504SOL     OW 1330   0.647   5.023   3.095 -0.6424 -0.1943 -0.2882
  504SOL    HW1 1331   0.660   4.983   3.186  0.3766 -0.4931 -0.5535
  504SOL    HW2 1332   0.716   5.094   3.080  0.0946 -1.1119 -1.3592
  505SOL     OW 1333   0.891   2.118   0.439 -0.0486 -0.6157 -0.3978
  505SOL    HW1 1334   0.925   2.072   0.521 -0.8485 -0.2086  0.1806
  505SOL    HW2 1335   0.862   2.049   0.372 -1.1317 -0.9890  0.4140
  506SOL     OW 1336   5.040   1.102   2.220  1.0240  0.2143 -0.1945
  506SOL    HW1 1337   4.961   1.071   2.167  0.9677  0.0949 -0.0412
  506SOL    HW2 1338   5.073   1.189   2.182  1.1401  0.0045 -0.5843
  507SOL     OW 1339   4.470   2.419   2.973 -0.0391 -0.6124 -0.1335
  507SOL    HW1 1340   4.506   2.486   3.038 -1.3492 -0.2203  0.2180
  507SOL    HW2 1341   4.470   2.329   3.015  1.3520 -0.7980 -0.4656
  508SOL     OW 1342   0.355   2.088   2.792  0.3255  0.6757  0.2218
  508SOL    HW1 1343   0.416   2.068   2.869 -0.7945 -1.5392  0.6298
  508SOL    HW2 1344   0.373   2.022   2.719 -1.1241  0.3600  0.1169
  509SOL     OW 1345   4.913   1.527   4.306 -0.4060 -0.2450 -0.1835
  509SOL    HW1 1346   4.986   1.460   4.291 -0.7319 -0.9962  1.4288
  509SOL    HW2 1347   4.827   1.479   4.320 -0.4507  0.4102  2.1459
  510SOL     OW 1348   2.429   0.607   3.129 -0.0619  0.0053  0.2988
  510SOL    HW1 1349   2.410   0.520   3.083  1.2020 -1.4670  2.3525
  510SOL    HW2 1350   2.381   0.608   3.217  1.0811  0.7619  0.9357
  511SOL     OW 1351   0.547   2.072   2.993  0.0386 -0.0404  0.0969
  511SOL    HW1 1352   0.569   2.159   2.949 -1.6284  0.1053 -0.5027
  511SOL    HW2 1353   0.564   2.080   3.092  0.5101  0.7465 -0.0384
  512SOL     OW 1354   1.133   0.231   2.044 -0.5187 -0.3994 -0.5730
  512SOL    HW1 1355   1.063   0.294   2.079  0.9073  0.5129  0.7579
  512SOL    HW2 1356   1.167   0.264   1.957 -0.1262  0.4384 -0.1149
  513SOL     OW 1357   0.037   2.005   2.436  0.2255  0.6019 -0.2501
  513SOL    HW1 1358  -0.041   2.062   2.414  0.3542  0.8812  0.0164
  513SOL    HW2 1359   0.114   2.062   2.464  0.7865  0.3810 -1.2881
  514SOL     OW 1360   2.125   0.334   2.489  0.0344  0.7695 -0.3000
  514SOL    HW1 1361   2.202   0.307   2.432  1.9886  1.0858  2.0303
  514SOL    HW2 1362   2.108   0.264   2.558  0.0307  1.9151  0.9021
  515SOL     OW 1363   4.574   1.376   3.089 -0.1487 -0.2092  0.2325
  515SOL    HW1 1364   4.663   1.386   3.044  0.2419 -0.6642  0.8753
  515SOL    HW2 1365   4.519   1.308   3.040  0.1831 -0.5288  0.2932
  516SOL     OW 1366   4.793   0.530   4.070 -0.0359 -0.1853 -1.1997
  516SOL    HW1 1367   4.886   0.511   4.038  0.6050 -1.9585  1.3636
  516SOL    HW2 1368   4.747   0.444   4.091 -1.5193  0.7434 -0.4510
  517SOL     OW 1369   4.642   0.924   2.892 -0.4805 -0.2547 -0.0242
  517SOL    HW1 1370   4.548   0.891   2.882 -0.4482 -1.0941  2.0007
  517SOL    HW2 1371   4.702   0.872   2.832 -1.3437  0.6645 -1.7611
  518SOL     OW 1372   4.299   1.087   2.532  0.2982  0.6734  0.0290
  518SOL    HW1 1373   4.380   1.128   2.572  0.8445 -1.2155  0.9787
  518SOL    HW2 1374   4.239   1.159   2.495  1.4126  2.2203  1.1343
  519SOL     OW 1375   1.144   0.546   1.876  0.5523 -0.2113  0.4526
  519SOL    HW1 1376   1.153   0.565   1.974 -0.5403  0.5536  0.4264
  519SOL    HW2 1377   1.186   0.458   1.855 -1.2200 -1.5362  2.0632
  520SOL     OW 1378   1.699   0.144   3.113 -0.1582 -0.0469  0.4173
  520SOL    HW1 1379   1.607   0.169   3.143  0.4773  0.3225  2.1493
  520SOL    HW2 1380   1.716   0.183   3.023 -1.3230  0.7326  0.5114
  521SOL     OW 1381   0.310   2.065   0.484 -0.5065 -0.0975  0.2218
  521SOL    HW1 1382   0.326   2.081   0.387  0.5360  0.4958  0.4760
  521SOL    HW2 1383   0.385   2.010   0.521 -1.1480 -0.7360  0.5882
  522SOL     OW 1384   0.337   2.268   3.100 -0.3420  0.7925  0.3415
  522SOL    HW1 1385   0.264   2.200   3.104  0.5162 -0.1167  0.8320
  522SOL    HW2 1386   0.347   2.301   3.005 -0.1768 -0.4156 -0.0750
  523SOL     OW 1387   1.756   0.784   3.713 -0.4737 -0.1126 -0.1355
  523SOL    HW1 1388   1.789   0.877   3.692 -0.7715 -0.3388 -1.7650
  523SOL    HW2 1389   1.834   0.721   3.712 -0.4668 -0.1018 -0.4956
  524SOL     OW 1390   1.240   1.086   3.255 -0.2569  0.1636 -0.2465
  524SOL    HW1 1391   1.301   1.007   3.261  2.5253  2.1767  0.3387
  524SOL    HW2 1392   1.183   1.091   3.337 -0.1966 -1.0142 -0.1210
  525SOL     OW 1393   1.349   0.968   4.469  0.0559  0.1477 -0.4232
  525SOL    HW1 1394   1.448   0.957   4.463  0.1389 -0.1925  1.0457
  525SOL    HW2 1395   1.325   1.064   4.455  0.7943  0.5732  0.9705
  526SOL     OW 1396   0.406   2.458   3.738 -0.1714  0.1994 -0.4619
  526SOL    HW1 1397   0.379   2.485   3.646 -1.7615  1.2101  0.2598
  526SOL    HW2 1398   0.332   2.405   3.780  2.0288 -3.8500 -1.1094
  527SOL     OW 1399   1.410   0.237   4.533 -0.1324 -0.5595  0.0181
  527SOL    HW1 1400   1.336   0.171   4.524  0.3192 -1.2281  1.0219
  527SOL    HW2 1401   1.498   0.190   4.534  0.2639  0.1522 -0.3411
  528SOL     OW 1402   1.288   0.004   1.739 -0.1871 -0.0711  0.0169
  528SOL    HW1 1403   1.288  -0.069   1.807  1.0510  1.6113  1.9259
  528SOL    HW2 1404   1.193   0.033   1.720 -0.7670 -2.6155 -1.3935
  529SOL     OW 1405   1.478   1.426   1.932 -0.3437  0.1188 -0.2277
  529SOL    HW1 1406   1.548   1.479   1.884 -1.6486  0.1461 -2.1998
  529SOL    HW2 1407   1.387   1.452   1.900 -1.1841 -1.1753  0.9647
  530SOL     OW 1408   1.060   3.632   2.077  0.1189  0.2964  0.6886
  530SOL    HW1 1409   1.111   3.556   2.038 -0.2991  0.9889 -1.3051
  530SOL    HW2 1410   0.965   3.628   2.046  0.0208  1.4680  0.7939
  531SOL     OW 1411   2.531   0.605   3.632  0.4892 -0.4293  0.3527
  531SOL    HW1 1412   2.525   0.647   3.541 -2.1131  0.0916  0.6862
  531SOL    HW2 1413   2.571   0.671   3.696 -1.6791  0.8996  0.4357
  532SOL     OW 1414   0.195   0.913   1.403  0.2261 -0.1702  0.6694
  532SOL    HW1 1415   0.180   1.010   1.424  0.7063 -0.0878  0.6306
  532SOL    HW2 1416   0.168   0.895   1.309  0.6266  0.0354  0.5159
  533SOL     OW 1417   0.903   2.092   1.849  0.3342 -0.1054 -0.6319
  533SOL    HW1 1418   0.928   1.996   1.851 -0.5852 -0.3725  1.4672
  533SOL    HW2 1419   0.976   2.147   1.890  0.3593 -0.0498 -0.7498
  534SOL     OW 1420   0.504   1.412   3.337 -0.0700  0.4736 -0.0620
  534SOL    HW1 1421   0.447   1.344   3.384  0.8719  1.1785  2.2841
  534SOL    HW2 1422   0.537   1.375   3.251  0.2058 -1.9536  1.0213
  535SOL     OW 1423   0.535   2.240   1.288 -0.1995  0.1184 -0.0900
  535SOL    HW1 1424   0.492   2.200   1.206  0.3242  1.2809 -0.9563
  535SOL    HW2 1425   0.479   2.316   1.320 -0.9823 -1.0013  1.3214
  536SOL     OW 1426   3.479   1.277   3.343  0.8984 -0.3854  0.0931
  536SOL    HW1 1427   3.533   1.310   3.266  1.8427  0.0930  0.9397
  536SOL    HW2 1428   3.389   1.247   3.311  0.9333  0.6751 -1.0508
  537SOL     OW 1429   0.223   1.865   3.257  0.0684 -0.6353 -0.0605
  537SOL    HW1 1430   0.134   1.857   3.212  0.2254 -0.9199 -0.3201
  537SOL    HW2 1431   0.244   1.962   3.271 -0.4008 -0.5778  0.2379
  538SOL     OW 1432   1.281   0.320   1.795  0.0057  0.2946  0.2481
  538SOL    HW1 1433   1.229   0.283   1.718  0.0480 -0.5293  0.5941
  538SOL    HW2 1434   1.356   0.378   1.761 -1.3789  1.8610 -0.2427
  539SOL     OW 1435   1.070   1.506   0.188  0.1449  0.7652  0.1234
  539SOL    HW1 1436   1.101   1.510   0.093 -0.2570  0.8941 -0.0017
  539SOL    HW2 1437   0.970   1.507   0.191  0.1640  1.3979  0.5787
  540SOL     OW 1438   2.662   0.716   2.129 -0.1489 -0.2368  0.0659
  540SOL    HW1 1439   2.734   0.710   2.060  0.3913 -1.6541  0.7197
  540SOL    HW2 1440   2.576   0.682   2.091  0.9277 -4.5739  1.0626
  541SOL     OW 1441   0.984   0.388   2.220  0.0749  0.1041  0.3823
  541SOL    HW1 1442   1.002   0.313   2.285  0.3097  1.5364  2.0434
  541SOL    HW2 1443   0.897   0.372   2.174  0.7302 -1.8342 -0.2814
  542SOL     OW 1444   2.599   1.652   2.890 -0.1138  0.0057 -0.3270
  542SOL    HW1 1445   2.577   1.595   2.969  0.2385  0.5448  0.1621
  542SOL    HW2 1446   2.668   1.720   2.915  0.4114 -0.1673 -1.2366
  543SOL     OW 1447   0.742   0.191   3.115 -0.4095 -0.0250  0.2491
  543SOL    HW1 1448   0.777   0.221   3.027  0.0336 -1.1432  0.0267
  543SOL    HW2 1449   0.642   0.184   3.111 -0.3547 -0.5762 -0.3389
  544SOL     OW 1450   0.297   2.340   2.796  0.1608  0.0619  0.0622
  544SOL    HW1 1451   0.305   2.241   2.783  1.5644 -0.0051  1.2491
  544SOL    HW2 1452   0.203   2.363   2.822 -0.3812 -0.8469 -1.0256
  545SOL     OW 1453   1.805   0.174   2.360  0.4075 -0.1775 -0.1800
  545SOL    HW1 1454   1.847   0.264   2.353 -1.8454  0.8756 -0.6680
  545SOL    HW2 1455   1.746   0.157   2.281 -1.1167 -1.0476  1.0876
  546SOL     OW 1456   0.908   4.828   2.875 -0.2264  0.6597 -0.0361
  546SOL    HW1 1457   0.921   4.918   2.832 -0.9817  0.2480 -1.1747
  546SOL    HW2 1458   0.815   4.797   2.858 -0.5519  0.4682  1.9490
  547SOL     OW 1459   0.638   2.287   2.836  0.3483  0.2727 -0.2312
  547SOL    HW1 1460   0.622   2.275   2.738  2.4946  0.2425 -0.6335
  547SOL    HW2 1461   0.673   2.379   2.853  1.1537 -0.1191  0.3130
  548SOL     OW 1462   0.414   2.598   2.851  0.5657  0.4316 -0.4100
  548SOL    HW1 1463   0.374   2.510   2.823  1.4260 -0.4162  0.8931
  548SOL    HW2 1464   0.513   2.587   2.862  0.4957  1.1066  1.2961
  549SOL     OW 1465   0.927   1.182   1.736  0.2908 -0.3251  0.4805
  549SOL    HW1 1466   0.955   1.086   1.737 -2.9453 -1.3922 -0.1438
  549SOL    HW2 1467   0.886   1.205   1.825 -0.9465 -0.2349 -0.0952
  550SOL     OW 1468   3.496   0.105   2.415 -0.3424  0.4786 -0.8393
  550SOL    HW1 1469   3.435   0.031   2.442 -1.2330  1.8646  1.1837
  550SOL    HW2 1470   3.539   0.083   2.328 -1.5697 -1.8003 -0.9300
  551SOL     OW 1471   1.748   4.611   2.517  0.6392 -0.3161 -0.4116
  551SOL    HW1 1472   1.784   4.625   2.425  2.2681  3.7958  0.6098
  551SOL    HW2 1473   1.667   4.668   2.530  0.5152 -0.7317  0.7443
  552SOL     OW 1474   0.407   0.244   2.075  0.1580  0.1372  0.2988
  552SOL    HW1 1475   0.335   0.212   2.136  0.0621  1.3614  0.8651
  552SOL    HW2 1476   0.445   0.330   2.110 -1.1275  1.8910 -2.2310
  553SOL     OW 1477   4.519   2.372   1.507 -0.1474 -0.3453  0.0683
  553SOL    HW1 1478   4.592   2.428   1.469  0.3580 -1.5659 -0.8114
  553SOL    HW2 1479   4.436   2.385   1.454 -1.0131  2.0138  1.8198
  554SOL     OW 1480   4.702   1.074   4.517  0.6485 -0.2720  0.2448
  554SOL    HW1 1481   4.774   1.066   4.448  1.1484  0.4315  0.6716
  554SOL    HW2 1482   4.617   1.034   4.481  1.0836 -0.5614 -0.4960
  555SOL     OW 1483   4.722   4.843   0.232 -0.3791 -0.4057  0.7904
  555SOL    HW1 1484   4.787   4.903   0.279  0.1646  1.5261 -2.1806
  555SOL    HW2 1485   4.634   4.889   0.222 -0.6013 -0.9263  0.2365
  556SOL     OW 1486   4.581   1.247   4.948  0.0154 -0.1300 -0.3074
  556SOL    HW1 1487   4.521   1.169   4.935  1.8291 -1.4670 -1.1441
  556SOL    HW2 1488   4.667   1.231   4.899  0.5196  2.3141 -0.3357
  557SOL     OW 1489   0.503   1.304   0.494 -1.0157 -0.2326  0.3351
  557SOL    HW1 1490   0.535   1.378   0.435  0.1465 -2.1112 -1.5186
  557SOL    HW2 1491   0.564   1.296   0.573 -1.3470  0.9545  0.7366
  558SOL     OW 1492   2.948   1.897   1.124  0.0891 -0.1331 -0.5303
  558SOL    HW1 1493   2.998   1.858   1.046 -0.0242 -0.4439 -0.4449
  558SOL    HW2 1494   2.957   1.997   1.122 -1.0093 -0.0283 -1.7061
  559SOL     OW 1495   1.688   0.484   4.007  0.2219  0.1484  0.2193
  559SOL    HW1 1496   1.698   0.580   4.033  2.1896 -0.2147  0.9477
  559SOL    HW2 1497   1.735   0.426   4.074  1.3705 -1.1493 -1.6362
  560SOL     OW 1498   1.889   0.077   4.373 -0.1514  0.1186 -0.0019
  560SOL    HW1 1499   1.963   0.032   4.323 -1.1344  0.6570 -2.0406
  560SOL    HW2 1500   1.908   0.174   4.380  0.4311 -0.0747  1.5913
  561SOL     OW 1501   1.177   4.728   4.869 -0.0729 -0.1964  0.1209
  561SOL    HW1 1502   1.204   4.819   4.838 -3.0727  0.4569 -0.9388
  561SOL    HW2 1503   1.157   4.731   4.967  0.2076  0.1756  0.1675
  562SOL     OW 1504   2.133   1.028   4.417 -0.0710 -0.2008  0.0227
  562SOL    HW1 1505   2.204   1.022   4.488  0.0363  1.1907  0.0719
  562SOL    HW2 1506   2.170   1.074   4.337 -0.2440 -1.6304 -0.9024
  563SOL     OW 1507   0.326   1.610   0.450 -0.1685 -0.0365  0.2297
  563SOL    HW1 1508   0.316   1.565   0.538  0.3591 -1.5769 -0.4628
  563SOL    HW2 1509   0.410   1.578   0.405 -0.9591 -0.0875 -1.2840
  564SOL     OW 1510   1.127   4.542   4.514  0.9514  0.2388 -0.2338
  564SOL    HW1 1511   1.053   4.482   4.485  0.0823  0.8405  0.7072
  564SOL    HW2 1512   1.208   4.487   4.537  0.2480 -0.5593  0.3719
  565SOL     OW 1513   0.180   1.986   4.719 -0.2687  0.4342 -0.5453
  565SOL    HW1 1514   0.180   1.893   4.681  2.2752 -0.1752  0.6805
  565SOL    HW2 1515   0.194   2.052   4.646 -1.4865 -0.1724 -1.3590
  566SOL     OW 1516   0.294   2.405   4.558  0.2462 -0.1025  0.0448
  566SOL    HW1 1517   0.379   2.419   4.609 -0.4913  2.4755  0.6981
  566SOL    HW2 1518   0.221   2.379   4.621  0.1993 -0.8094 -0.2946
  567SOL     OW 1519   4.472   0.344   4.448  0.4995  0.2627 -0.0031
  567SOL    HW1 1520   4.493   0.442   4.444  0.1082  0.3729  0.5867
  567SOL    HW2 1521   4.437   0.321   4.538 -0.5985 -0.1890 -0.5330
  568SOL     OW 1522   0.107   2.574   5.042 -0.1988  0.0540  0.3835
  568SOL    HW1 1523   0.103   2.673   5.051  0.6566 -0.0256  1.9971
  568SOL    HW2 1524   0.038   2.532   5.101  0.0497 -0.3220  0.4095
  569SOL     OW 1525   1.913   1.195   4.533  0.0068 -0.3049 -0.1628
  569SOL    HW1 1526   1.904   1.122   4.600 -0.6634 -0.9906 -0.9830
  569SOL    HW2 1527   2.003   1.191   4.491 -0.5282 -1.6114 -1.2613
  570SOL     OW 1528   0.351   1.151   3.192  0.5246 -0.3146  0.7193
  570SOL    HW1 1529   0.334   1.055   3.172  3.0508 -0.8212  0.6201
  570SOL    HW2 1530   0.439   1.178   3.153  0.9084  1.4387  2.5994
  571SOL     OW 1531   2.547   0.160   3.368 -0.4851  0.5147 -0.7126
  571SOL    HW1 1532   2.594   0.178   3.281 -3.1644  1.0684 -2.1587
  571SOL    HW2 1533   2.461   0.112   3.349  0.0374 -1.6987  1.9209
  572SOL     OW 1534   4.407   0.676   4.116 -0.4253 -0.6038  0.1321
  572SOL    HW1 1535   4.382   0.579   4.120 -0.7967 -0.4794  1.1617
  572SOL    HW2 1536   4.340   0.730   4.166  0.3099  0.0731  0.4150
  573SOL     OW 1537   2.022   0.780   0.122 -0.5626  0.2362  0.2830
  573SOL    HW1 1538   2.024   0.733   0.211 -0.8199  1.3118  0.8738
  573SOL    HW2 1539   2.115   0.785   0.085 -0.2667  0.8293  1.0682
  574SOL     OW 1540   1.873   0.956   3.352 -0.8248 -0.2576 -0.2054
  574SOL    HW1 1541   1.901   1.045   3.318  0.5256 -1.0239 -1.2051
  574SOL    HW2 1542   1.858   0.894   3.275  0.3497 -1.4710  0.4925
  575SOL     OW 1543   1.755   0.044   4.804  0.0466  0.5404  0.6045
  575SOL    HW1 1544   1.761  -0.055   4.812  0.8993  0.6510  1.4579
  575SOL    HW2 1545   1.842   0.082   4.773 -0.7426  0.9081 -1.3505
  576SOL     OW 1546   2.127   0.252   3.289 -0.1576  0.7645  0.1486
  576SOL    HW1 1547   2.203   0.187   3.278 -1.7357 -1.2513  0.4689
  576SOL    HW2 1548   2.143   0.308   3.370  1.0893  0.5489  0.0787
  577SOL     OW 1549   0.355   2.524   4.941  0.0186  0.0849  0.0167
  577SOL    HW1 1550   0.376   2.434   4.979 -0.1346  0.3803  0.8137
  577SOL    HW2 1551   0.257   2.543   4.950  0.3840  1.3495  2.1883
  578SOL     OW 1552   1.649   0.321   4.919  0.3460  0.0385 -0.0154
  578SOL    HW1 1553   1.686   0.353   4.832 -0.9257  2.6986  0.3288
  578SOL    HW2 1554   1.668   0.388   4.991 -1.2063 -0.6693  1.1214
  579SOL     OW 1555   4.395   2.323   3.719 -0.1331  0.3471  0.2838
  579SOL    HW1 1556   4.354   2.389   3.656 -0.3653  0.8223  0.9165
  579SOL    HW2 1557   4.329   2.300   3.791 -1.0013 -2.5114 -1.2859
  580SOL     OW 1558   2.396   0.586   4.879 -0.1865  0.3156 -0.3670
  580SOL    HW1 1559   2.389   0.552   4.786 -1.0177  0.8951 -0.5235
  580SOL    HW2 1560   2.406   0.509   4.942  0.1275 -0.0903 -0.9094
  581SOL     OW 1561   0.727   1.164   3.405 -0.0365  0.1374 -0.4170
  581SOL    HW1 1562   0.676   1.193   3.324  0.4874 -2.5534 -1.8171
  581SOL    HW2 1563   0.782   1.083   3.383 -0.1966 -0.9697  2.7474
  582SOL     OW 1564   0.966   0.637   0.262  0.1456 -0.4546 -0.0594
  582SOL    HW1 1565   0.984   0.548   0.304  0.4728  0.4963  1.9199
  582SOL    HW2 1566   0.894   0.627   0.193  1.6956 -2.6268 -1.4745
  583SOL     OW 1567   2.499   1.252   4.869 -0.1023 -0.0961  0.1832
  583SOL    HW1 1568   2.406   1.286   4.883 -0.0426  0.6530 -1.0548
  583SOL    HW2 1569   2.543   1.236   4.957 -1.0474  0.5490  0.7820
  584SOL     OW 1570   1.132   1.043   0.500  0.5124 -0.0351  0.1197
  584SOL    HW1 1571   1.148   0.966   0.438  0.7385  0.2574 -0.1875
  584SOL    HW2 1572   1.217   1.065   0.548  0.2660 -0.4501  0.7559
  585SOL     OW 1573   1.886   4.372   3.309 -0.2276  0.4185 -0.2157
  585SOL    HW1 1574   1.889   4.472   3.320 -1.9298  0.6254 -1.3545
  585SOL    HW2 1575   1.917   4.348   3.216 -0.8221 -0.0298 -0.3009
  586SOL     OW 1576   0.649   0.231   4.903  0.1654  0.1923  0.0941
  586SOL    HW1 1577   0.709   0.245   4.982 -1.0021 -0.3441  1.0996
  586SOL    HW2 1578   0.706   0.215   4.821  1.4006 -0.3822  1.0238
  587SOL     OW 1579   1.326   1.160   5.052 -0.7337  0.5694 -0.0383
  587SOL    HW1 1580   1.368   1.085   5.001  0.1963  0.9122  0.2023
  587SOL    HW2 1581   1.292   1.127   5.140 -0.8527  0.3145 -0.1796
  588SOL     OW 1582   4.638   4.488   3.266  0.0074  0.4930 -0.3996
  588SOL    HW1 1583   4.733   4.510   3.247  0.3199 -0.2445  0.2478
  588SOL    HW2 1584   4.622   4.491   3.365 -0.2409 -0.8617 -0.3782
  589SOL     OW 1585   1.867   1.029   4.756  0.0154 -0.6995 -0.3658
  589SOL    HW1 1586   1.783   0.978   4.735  0.6143 -1.2583 -1.4736
  589SOL    HW2 1587   1.844   1.107   4.813 -1.2912 -0.7740 -0.7481
  590SOL     OW 1588   4.121   0.624   3.628  0.5438  0.1509 -0.8220
  590SOL    HW1 1589   4.162   0.605   3.717  0.6984 -0.5647 -1.0408
  590SOL    HW2 1590   4.130   0.544   3.569 -0.0415  0.4313 -1.3019
  591SOL     OW 1591   1.199   2.276   3.689 -0.0291  0.7185  0.1086
  591SOL    HW1 1592   1.193   2.285   3.589  0.7414  1.3000  0.1032
  591SOL    HW2 1593   1.254   2.195   3.711 -1.8318 -0.5522  0.0959
  592SOL     OW 1594   4.934   0.943   3.803  0.1368 -0.1085  0.0301
  592SOL    HW1 1595   4.837   0.922   3.797  0.6748 -3.0171  0.0127
  592SOL    HW2 1596   4.983   0.864   3.839  2.5119  1.2991  0.0988
  593SOL     OW 1597   2.646   4.804   5.045  0.5002  0.4707 -0.1223
  593SOL    HW1 1598   2.606   4.892   5.070 -1.5212 -0.1382 -1.0305
  593SOL    HW2 1599   2.666   4.751   5.128 -0.1300  0.9921  0.3669
  594SOL     OW 1600   0.727   1.153   4.577  0.2189 -0.4063  0.2088
  594SOL    HW1 1601   0.766   1.113   4.494 -0.3046  0.5050 -0.4988
  594SOL    HW2 1602   0.628   1.163   4.565  0.3091  0.9347  0.4069
  595SOL     OW 1603   0.286   0.999   4.244  0.1137 -0.6198 -0.0765
  595SOL    HW1 1604   0.311   0.962   4.334  0.8553  0.2868  0.1069
  595SOL    HW2 1605   0.364   0.989   4.181 -0.1395 -0.5525 -0.4026
  596SOL     OW 1606   0.738   3.118   3.039  0.4503 -0.0502  0.1532
  596SOL    HW1 1607   0.656   3.061   3.041  0.4088  0.0231  1.6993
  596SOL    HW2 1608   0.749   3.164   3.127  1.4879  0.9062 -0.4487
  597SOL     OW 1609   0.682   0.292   3.445 -0.1805 -0.0266 -0.0414
  597SOL    HW1 1610   0.582   0.293   3.439 -0.2311 -1.9858 -0.2910
  597SOL    HW2 1611   0.721   0.278   3.354  0.2854 -0.0133  0.1529
  598SOL     OW 1612   0.970   0.235   3.951 -0.1015  0.2155  0.7336
  598SOL    HW1 1613   1.032   0.159   3.974  0.2503  0.2495 -0.0746
  598SOL    HW2 1614   0.880   0.217   3.990  0.0055 -0.5745  0.6351
  599SOL     OW 1615   2.985   4.172   3.958 -0.8526 -0.2565 -0.1728
  599SOL    HW1 1616   2.919   4.213   3.894  0.8351  0.3203 -1.6068
  599SOL    HW2 1617   3.032   4.096   3.913 -0.7276 -0.8671  0.9519
  600SOL     OW 1618   1.182   1.047   0.196 -0.5336 -0.3212 -0.1950
  600SOL    HW1 1619   1.173   0.969   0.258 -0.6217  0.2016  0.4681
  600SOL    HW2 1620   1.111   1.114   0.217  0.2745  0.4768  0.0557
  601SOL     OW 1621   0.974   2.321   4.139 -0.3145 -0.2530  0.3719
  601SOL    HW1 1622   0.947   2.416   4.151 -0.4201 -0.1884 -0.3463
  601SOL    HW2 1623   0.895   2.266   4.113 -0.1777 -0.4682  0.4023
  602SOL     OW 1624   0.221   4.604   4.713 -0.0775  0.1942  0.0315
  602SOL    HW1 1625   0.130   4.575   4.742 -0.3822 -0.4586 -1.4980
  602SOL    HW2 1626   0.276   4.627   4.793 -0.8986 -1.4524  1.1106
  603SOL     OW 1627   1.882   0.827   3.114  0.7238  0.3736  0.1282
  603SOL    HW1 1628   1.843   0.839   3.023  2.0013 -1.1308 -0.6813
  603SOL    HW2 1629   1.918   0.734   3.122  2.8952  1.2577  1.2863
  604SOL     OW 1630   0.790   1.741   4.358  0.4310 -0.3779  0.1213
  604SOL    HW1 1631   0.740   1.662   4.322  1.6531 -0.9015 -0.4694
  604SOL    HW2 1632   0.733   1.787   4.427 -0.8893 -0.8906 -0.5837
  605SOL     OW 1633   5.077   4.926   5.043 -0.8782  0.2492 -0.6269
  605SOL    HW1 1634   5.162   4.977   5.051 -0.2327 -0.4010 -2.5220
  605SOL    HW2 1635   5.090   4.834   5.082 -1.3867  0.8164  0.9261
  606SOL     OW 1636   0.943   0.159   4.450 -0.5450 -0.2546 -0.5615
  606SOL    HW1 1637   0.853   0.175   4.410 -0.8336  0.7363  0.4396
  606SOL    HW2 1638   1.005   0.233   4.423 -1.0227  0.9982  1.5766
  607SOL     OW 1639   1.934   1.629   2.355 -0.8867 -0.1464  0.0186
  607SOL    HW1 1640   1.958   1.533   2.340 -1.4669 -0.3202  0.1998
  607SOL    HW2 1641   1.837   1.636   2.379 -0.9589  0.5266 -0.4481
  608SOL     OW 1642   4.643   4.365   4.146  0.2154 -0.0140  0.3683
  608SOL    HW1 1643   4.614   4.397   4.056 -1.9298  0.9923  1.3290
  608SOL    HW2 1644   4.655   4.443   4.207  1.2412 -0.6984  1.0805
  609SOL     OW 1645   1.503   0.499   4.431 -0.2674  0.2706  0.4996
  609SOL    HW1 1646   1.475   0.406   4.457  1.2172 -0.6388 -0.9032
  609SOL    HW2 1647   1.426   0.545   4.386 -1.0558 -0.2335  1.2921
  610SOL     OW 1648   2.001   0.575   3.692 -0.3514  0.8563  0.3850
  610SOL    HW1 1649   2.058   0.629   3.630  2.0227 -0.8290  0.9763
  610SOL    HW2 1650   2.026   0.595   3.787  0.0998 -0.7178  0.6304
  611SOL     OW 1651   1.935   0.646   4.404  0.0694  0.1227  0.2450
  611SOL    HW1 1652   1.998   0.679   4.474  2.0342 -0.8198 -0.9851
  611SOL    HW2 1653   1.952   0.694   4.318 -1.6138  0.5624  0.1325
  612SOL     OW 1654   1.035   1.904   3.985 -0.7376  0.7289  0.5689
  612SOL    HW1 1655   1.034   1.940   3.892 -1.5895  1.7996  0.9660
  612SOL    HW2 1656   1.076   1.813   3.985 -2.9465 -0.3573 -1.2415
  613SOL     OW 1657   0.096   0.905   3.539 -0.1484 -0.7375 -0.0071
  613SOL    HW1 1658   0.079   0.942   3.448 -0.8811 -1.1408 -0.0451
  613SOL    HW2 1659   0.123   0.978   3.601 -1.1478 -0.2065 -0.1804
  614SOL     OW 1660   0.668   4.696   3.767 -0.0645 -0.2610 -0.1659
  614SOL    HW1 1661   0.705   4.774   3.818  0.5456 -0.9176  0.4271
  614SOL    HW2 1662   0.724   4.615   3.786 -1.9312 -1.3702  0.9472
  615SOL     OW 1663   1.375   0.459   3.975 -0.3912 -0.1362 -0.1583
  615SOL    HW1 1664   1.320   0.497   3.901 -1.4876  0.1924  0.7832
  615SOL    HW2 1665   1.447   0.400   3.938 -1.6441 -0.9144 -1.4425
  616SOL     OW 1666   0.665   4.583   0.168 -0.1205 -0.4594 -1.0694
  616SOL    HW1 1667   0.587   4.643   0.149 -1.0269 -1.7591 -1.5911
  616SOL    HW2 1668   0.633   4.488   0.175  0.9991 -0.7399  1.4139
  617SOL     OW 1669   1.718   0.958   4.201  0.5117 -0.1167 -0.4468
  617SOL    HW1 1670   1.756   1.050   4.213 -0.6511  0.4641 -0.9764
  617SOL    HW2 1671   1.693   0.920   4.290  0.4864  0.3271 -0.2621
  618SOL     OW 1672   1.131   1.021   3.762 -0.3404  0.0091  0.2926
  618SOL    HW1 1673   1.224   1.029   3.798 -0.6297 -1.1431  1.3964
  618SOL    HW2 1674   1.066   1.058   3.829 -0.6015  2.7097 -1.3241
  619SOL     OW 1675   1.345   1.764   3.364  0.3671 -0.5798  0.0805
  619SOL    HW1 1676   1.251   1.732   3.379  0.2268 -0.9835 -1.4443
  619SOL    HW2 1677   1.400   1.688   3.329  0.2896  0.4969 -2.6195
  620SOL     OW 1678   1.612   2.032   2.579  0.5178  0.0089 -0.6536
  620SOL    HW1 1679   1.576   1.980   2.657 -1.3654 -0.8716 -2.0138
  620SOL    HW2 1680   1.695   1.989   2.546  0.8767 -0.0913  0.3562
  621SOL     OW 1681   0.942   1.537   3.970  0.6613  0.4919 -0.1633
  621SOL    HW1 1682   0.963   1.489   3.885 -0.6972 -2.9549  1.2773
  621SOL    HW2 1683   0.849   1.572   3.967  0.0984 -0.9229  0.4112
  622SOL     OW 1684   1.293   0.424   2.786  0.1807 -0.0286 -0.0482
  622SOL    HW1 1685   1.199   0.395   2.764 -0.3073  0.0668  1.7043
  622SOL    HW2 1686   1.357   0.384   2.721 -0.9233 -1.4596 -0.3030
  623SOL     OW 1687   0.129   4.984   3.115  0.2052 -0.4400  0.1643
  623SOL    HW1 1688   0.055   4.934   3.070 -0.3424 -0.0591  0.6287
  623SOL    HW2 1689   0.216   4.963   3.070 -0.2633 -0.4508 -0.7503
  624SOL     OW 1690   1.497   0.450   3.514 -0.3701 -0.2672  0.1451
  624SOL    HW1 1691   1.400   0.444   3.489 -0.4886  0.0337  0.5305
  624SOL    HW2 1692   1.529   0.360   3.545 -0.8062 -0.1424  1.0065
  625SOL     OW 1693   1.935   1.030   0.078 -0.2363 -0.0842  0.1558
  625SOL    HW1 1694   1.994   1.064   0.004 -0.5919  0.1540 -0.0226
  625SOL    HW2 1695   1.961   0.936   0.101 -1.0013 -0.6710 -1.2332
  626SOL     OW 1696   1.337   0.809   3.768  0.0459 -0.6338 -0.1624
  626SOL    HW1 1697   1.294   0.885   3.719  0.3695 -0.7199 -0.5864
  626SOL    HW2 1698   1.403   0.764   3.708  1.2629 -0.0529  0.6843
  627SOL     OW 1699   4.577   4.598   4.504  0.5521  0.4030 -0.4052
  627SOL    HW1 1700   4.560   4.696   4.514  1.3850  0.4715  0.4768
  627SOL    HW2 1701   4.489   4.549   4.505  0.2154  0.9777  1.2631
  628SOL     OW 1702   2.321   4.533   0.923 -0.2531 -0.1942 -0.4942
  628SOL    HW1 1703   2.386   4.596   0.966 -2.2799  1.1593  0.7719
  628SOL    HW2 1704   2.228   4.566   0.938 -1.3402 -2.7353 -1.1026
  629SOL     OW 1705   1.090   0.714   2.942 -0.3000  0.4278 -0.5248
  629SOL    HW1 1706   1.180   0.756   2.955 -1.3150  2.4976  0.2918
  629SOL    HW2 1707   1.097   0.615   2.955  1.6401  0.6733  0.7101
  630SOL     OW 1708   1.687   0.329   4.297  0.2872  0.1678  0.0430
  630SOL    HW1 1709   1.781   0.353   4.276 -0.1425  2.0873  0.1838
  630SOL    HW2 1710   1.649   0.394   4.363 -1.3356 -0.1715 -0.4976
  631SOL     OW 1711   0.400   2.314   0.039  0.4108 -0.0143  0.4604
  631SOL    HW1 1712   0.304   2.292   0.054  0.5471 -0.0756  1.2457
  631SOL    HW2 1713   0.457   2.263   0.103  1.0329 -0.5738 -0.5053
  632SOL     OW 1714   2.315   0.514   4.297  0.1289  0.0656  0.2437
  632SOL    HW1 1715   2.249   0.498   4.224  1.0570 -0.7544 -0.4392
  632SOL    HW2 1716   2.306   0.608   4.330  1.0042  1.1250 -2.2921
  633SOL     OW 1717   1.699   0.554   3.327 -0.1039  0.1307 -0.2513
  633SOL    HW1 1718   1.620   0.521   3.377 -1.2745  0.4460 -1.8084
  633SOL    HW2 1719   1.766   0.480   3.318  0.5320  0.2929  2.4042
  634SOL     OW 1720   0.984   0.524   4.890 -0.0199  0.1128  0.2381
  634SOL    HW1 1721   0.974   0.622   4.906  0.9538  0.5789 -1.6558
  634SOL    HW2 1722   0.895   0.483   4.873 -0.4331  0.6673  1.0398
  635SOL     OW 1723   1.027   1.296   4.335 -0.1464 -0.1636  0.0777
  635SOL    HW1 1724   1.083   1.272   4.414 -0.4683  2.2953  1.1503
  635SOL    HW2 1725   1.081   1.286   4.251  0.5798 -1.6388  0.6903
  636SOL     OW 1726   0.661   4.880   4.971 -0.5426  0.6473  0.5613
  636SOL    HW1 1727   0.599   4.923   4.905 -0.5466 -0.1971 -0.0044
  636SOL    HW2 1728   0.625   4.790   4.997 -0.5194  0.9587  1.7002
  637SOL     OW 1729   2.149   0.382   3.535 -0.2430  0.0277  0.1313
  637SOL    HW1 1730   2.063   0.411   3.576 -1.8518 -1.5733 -1.8555
  637SOL    HW2 1731   2.185   0.303   3.585 -1.1596 -0.7011 -0.3280
  638SOL     OW 1732   4.281   0.442   4.166 -0.7117  0.2750 -0.0989
  638SOL    HW1 1733   4.333   0.357   4.157 -1.8986 -0.3850 -1.0296
  638SOL    HW2 1734   4.192   0.432   4.121 -1.2751  1.6883  0.6242
  639SOL     OW 1735   0.146   1.545   4.846 -0.0568  0.1791  0.1379
  639SOL    HW1 1736   0.229   1.505   4.885 -0.4057  1.1392  1.9199
  639SOL    HW2 1737   0.090   1.472   4.808  0.7168 -0.6958  0.6253
  640SOL     OW 1738   0.538   4.977   4.747  0.0832 -0.4105 -0.2307
  640SOL    HW1 1739   0.522   5.059   4.693  0.2051 -0.3558 -0.1841
  640SOL    HW2 1740   0.490   4.900   4.706 -0.1673 -0.2804 -0.1806
  641SOL     OW 1741   1.210   1.423   0.427  0.5100  0.1964  0.1559
  641SOL    HW1 1742   1.307   1.413   0.408  1.0621 -0.2966  2.8449
  641SOL    HW2 1743   1.164   1.460   0.346  2.6641 -0.7724 -1.6235
  642SOL     OW 1744   0.792   3.987   0.822  0.1902 -0.0403  0.4093
  642SOL    HW1 1745   0.864   4.057   0.825 -1.0998  1.6643 -2.9020
  642SOL    HW2 1746   0.714   4.017   0.878  0.1909  0.5036  0.1237
  643SOL     OW 1747   1.729   4.850   4.801 -0.2911 -0.0966  0.6576
  643SOL    HW1 1748   1.764   4.835   4.894  0.7891 -0.0298  0.2739
  643SOL    HW2 1749   1.722   4.763   4.753 -0.3335 -0.0752  0.6256
  644SOL     OW 1750   1.932   0.517   2.575  0.1208 -0.5480 -0.2328
  644SOL    HW1 1751   1.999   0.444   2.567 -1.9899 -2.4510 -2.2477
  644SOL    HW2 1752   1.880   0.506   2.659  0.1019 -1.1185 -0.3182
  645SOL     OW 1753   1.174   1.131   2.987  0.0838 -0.1537  0.2061
  645SOL    HW1 1754   1.128   1.219   2.991 -0.9909 -0.6516 -0.7922
  645SOL    HW2 1755   1.187   1.096   3.080  1.2006  1.3661  0.6628
  646SOL     OW 1756   1.221   0.588   4.526  0.3349 -0.2155 -0.3179
  646SOL    HW1 1757   1.264   0.626   4.444 -0.3375 -0.9924 -1.0479
  646SOL    HW2 1758   1.279   0.606   4.606  0.6233  1.2374 -0.8257
  647SOL     OW 1759   4.647   0.756   4.067  0.4700  0.3398  0.2248
  647SOL    HW1 1760   4.704   0.674   4.075  0.2323  0.0357 -0.9294
  647SOL    HW2 1761   4.551   0.731   4.078  0.5323  0.9449  2.7741
  648SOL     OW 1762   0.318   1.388   4.037  0.3667  0.4252  0.1600
  648SOL    HW1 1763   0.381   1.362   4.110  0.7362  1.4757  0.2329
  648SOL    HW2 1764   0.290   1.306   3.986  1.3426 -0.1214  0.4755
  649SOL     OW 1765   0.616   4.825   1.359 -0.2423  0.0742  0.0939
  649SOL    HW1 1766   0.533   4.823   1.303 -0.6929 -0.4326  0.7686
  649SOL    HW2 1767   0.623   4.913   1.405  0.4974  0.7701 -1.2740
  650SOL     OW 1768   0.108   0.944   3.991 -0.0420 -0.1899  0.5475
  650SOL    HW1 1769   0.160   0.939   4.076 -0.6089 -0.3175  0.8922
  650SOL    HW2 1770   0.053   0.861   3.980 -1.1392  0.4737  0.8275
  651SOL     OW 1771   0.883   3.398   3.663 -0.2590  0.0466 -0.2023
  651SOL    HW1 1772   0.783   3.401   3.669 -0.2937 -0.7567 -0.2524
  651SOL    HW2 1773   0.911   3.383   3.569 -0.1580 -1.4571  0.0420
  652SOL     OW 1774   0.569   0.858   3.842 -0.7922  0.3975 -0.0994
  652SOL    HW1 1775   0.481   0.818   3.868 -1.1481  0.1576 -1.5903
  652SOL    HW2 1776   0.562   0.958   3.844 -0.3438  0.4373  2.1630
  653SOL     OW 1777   1.068   1.061   3.473  0.3549  0.0952 -0.1578
  653SOL    HW1 1778   1.062   1.060   3.573  0.6436 -0.6734 -0.1357
  653SOL    HW2 1779   1.004   0.994   3.436  0.8902 -0.2669 -0.4392
  654SOL     OW 1780   0.772   0.455   4.723  0.0767 -0.0532  0.0267
  654SOL    HW1 1781   0.784   0.358   4.702 -1.2431 -0.1655 -0.3063
  654SOL    HW2 1782   0.797   0.509   4.643 -2.3196 -0.3335 -0.9965
  655SOL     OW 1783   0.820   0.819   4.289 -0.6474 -0.4732 -0.4803
  655SOL    HW1 1784   0.764   0.786   4.213  0.0090  0.3146 -1.3347
  655SOL    HW2 1785   0.824   0.919   4.286 -0.1336 -0.4664  0.2496
  656SOL     OW 1786   1.448   1.238   3.367  0.1704 -0.0560 -0.1425
  656SOL    HW1 1787   1.366   1.200   3.324  0.2402  0.2593 -0.5638
  656SOL    HW2 1788   1.501   1.165   3.410 -0.7903 -0.1530  0.9327
  657SOL     OW 1789   0.146   0.711   3.718  0.4387  0.3378  0.5857
  657SOL    HW1 1790   0.184   0.626   3.680  1.1758  0.2795  1.4259
  657SOL    HW2 1791   0.129   0.776   3.644 -1.8619 -1.1702 -0.3286
  658SOL     OW 1792   1.082   1.973   0.113  0.7247 -0.3309  0.1288
  658SOL    HW1 1793   1.121   1.984   0.205  0.1945  1.5093  0.1652
  658SOL    HW2 1794   1.140   1.911   0.060  1.6118 -0.6084  1.3696
  659SOL     OW 1795   1.075   0.794   4.186  0.7013  0.0472 -0.1780
  659SOL    HW1 1796   1.151   0.765   4.244  0.4353 -2.7041 -1.0730
  659SOL    HW2 1797   0.989   0.780   4.235  0.6275  0.5906 -0.1491
  660SOL     OW 1798   1.620   1.502   4.081  0.2077 -0.2190  0.2123
  660SOL    HW1 1799   1.606   1.423   4.142 -0.5603 -0.5417 -0.3685
  660SOL    HW2 1800   1.551   1.572   4.100  0.0964 -0.2306 -0.1423
  661SOL     OW 1801   0.693   1.395   4.111  0.1748 -0.0611 -0.4658
  661SOL    HW1 1802   0.685   1.465   4.182  0.1799  2.2281 -2.5865
  661SOL    HW2 1803   0.789   1.380   4.090  0.1258  0.4264 -1.0526
  662SOL     OW 1804   2.118   4.842   3.719 -0.3086 -0.3515  0.2129
  662SOL    HW1 1805   2.152   4.767   3.776 -0.4675 -1.5189 -1.1653
  662SOL    HW2 1806   2.098   4.921   3.777  2.8060 -0.2513  1.3579
  663SOL     OW 1807   1.269   1.645   1.414 -0.0881  0.1172 -0.2976
  663SOL    HW1 1808   1.223   1.586   1.347 -0.6795  0.5934 -0.3287
  663SOL    HW2 1809   1.317   1.719   1.366 -4.3170  3.2847 -0.2443
  664SOL     OW 1810   1.519   1.289   4.272  0.0689  0.0147 -0.6566
  664SOL    HW1 1811   1.482   1.200   4.242  1.2310 -1.0257  0.8787
  664SOL    HW2 1812   1.446   1.357   4.272 -0.6667 -0.6946 -2.6966
  665SOL     OW 1813   2.260   0.840   3.833  0.0939  0.5236  0.2250
  665SOL    HW1 1814   2.296   0.884   3.916  2.1063 -0.2627 -0.1719
  665SOL    HW2 1815   2.262   0.906   3.757 -0.1051  0.7358  0.4038
  666SOL     OW 1816   2.049   2.008   3.559  0.6286 -0.0352  0.4101
  666SOL    HW1 1817   2.000   1.924   3.533  0.4061  0.6841 -1.6572
  666SOL    HW2 1818   1.985   2.073   3.600 -0.1610  0.7563 -1.9422
  667SOL     OW 1819   1.575   0.948   4.722  0.2883  0.2342  0.4177
  667SOL    HW1 1820   1.548   1.034   4.766 -0.8329  0.3445 -0.4465
  667SOL    HW2 1821   1.562   0.873   4.786  0.9102  0.6520  1.0513
  668SOL     OW 1822   2.426   1.510   3.973 -0.1664 -0.3338  0.4010
  668SOL    HW1 1823   2.467   1.574   3.907 -0.6319 -1.5208 -1.1130
  668SOL    HW2 1824   2.338   1.545   4.004 -0.5451 -0.3284 -0.6229
  669SOL     OW 1825   1.414   2.085   0.237 -0.0989 -0.0112 -0.2028
  669SOL    HW1 1826   1.459   2.014   0.183  0.4845  1.6192 -1.9700
  669SOL    HW2 1827   1.340   2.044   0.291  0.4368 -1.9931 -0.8911
  670SOL     OW 1828   1.642   4.518   4.986 -0.4841  0.8417  0.0610
  670SOL    HW1 1829   1.683   4.563   5.065  0.4055 -0.7049  0.5442
  670SOL    HW2 1830   1.579   4.447   5.017 -0.1405  0.2289 -0.5921
  671SOL     OW 1831   0.122   0.334   3.824  0.3479 -0.2123 -0.4488
  671SOL    HW1 1832   0.177   0.381   3.755  0.8915 -0.5792 -0.2732
  671SOL    HW2 1833   0.030   0.373   3.826  0.8243  0.9537 -0.1977
  672SOL     OW 1834   2.231   1.172   4.201  0.0979 -0.1509  0.0805
  672SOL    HW1 1835   2.275   1.255   4.235  2.3768 -0.1432 -2.5529
  672SOL    HW2 1836   2.156   1.197   4.140 -1.7005 -0.1629  2.1432
  673SOL     OW 1837   1.440   1.126   0.260 -0.1415 -0.5460  0.2224
  673SOL    HW1 1838   1.342   1.115   0.248 -0.0784 -0.2633 -0.6461
  673SOL    HW2 1839   1.489   1.053   0.213  0.0970  0.1448 -0.6334
  674SOL     OW 1840   1.118   1.735   4.328  0.4249 -0.1559  0.4707
  674SOL    HW1 1841   1.020   1.716   4.334 -0.0650  1.4992 -1.2304
  674SOL    HW2 1842   1.162   1.711   4.414 -1.5002 -0.7575  1.3449
  675SOL     OW 1843   1.768   2.064   3.805  0.2880 -0.3632  0.1721
  675SOL    HW1 1844   1.694   2.088   3.868  0.4998 -0.3249  0.4069
  675SOL    HW2 1845   1.734   1.999   3.737 -0.5023  1.0886 -0.8954
  676SOL     OW 1846   1.420   1.108   3.783 -0.1249  0.7785  0.0197
  676SOL    HW1 1847   1.515   1.111   3.814 -0.0957  1.8548 -0.1399
  676SOL    HW2 1848   1.369   1.183   3.825 -0.6849  0.7508 -0.6028
  677SOL     OW 1849   2.321   4.805   4.071 -0.2890 -0.0223  0.2922
  677SOL    HW1 1850   2.371   4.727   4.033 -1.4928 -0.3434 -0.6913
  677SOL    HW2 1851   2.376   4.849   4.142  0.7670 -1.2341  0.2463
  678SOL     OW 1852   0.216   1.816   0.064  0.2934 -0.0455 -0.3637
  678SOL    HW1 1853   0.295   1.765   0.031 -1.6363 -2.1870 -2.0468
  678SOL    HW2 1854   0.159   1.843  -0.013 -0.1784  2.3171  0.7268
  679SOL     OW 1855   2.383   4.813   0.489 -0.0512  0.5554 -0.1787
  679SOL    HW1 1856   2.290   4.796   0.523  0.0152 -1.0881 -0.7169
  679SOL    HW2 1857   2.410   4.738   0.429  2.2416  0.1870  1.2230
  680SOL     OW 1858   0.359   1.651   4.295  0.1051 -0.0495 -0.6897
  680SOL    HW1 1859   0.264   1.681   4.286  0.8850  1.9871 -4.7473
  680SOL    HW2 1860   0.403   1.701   4.370 -2.1824 -2.0448  2.2090
  681SOL     OW 1861   4.385   0.833   2.866  0.3462 -0.5808 -0.1830
  681SOL    HW1 1862   4.372   0.734   2.873 -1.6376 -0.2442  2.2040
  681SOL    HW2 1863   4.315   0.872   2.806  1.0608 -0.5881 -1.0365
  682SOL     OW 1864   2.678   5.081   2.971 -0.1597  0.3999 -0.2813
  682SOL    HW1 1865   2.720   5.170   2.954 -0.8492  0.6271 -0.8390
  682SOL    HW2 1866   2.725   5.036   3.047 -1.7881  2.6140  2.2190
  683SOL     OW 1867   0.758   2.447   3.161 -0.3545 -0.3437 -0.1395
  683SOL    HW1 1868   0.782   2.442   3.258 -1.2690 -1.5826  0.0465
  683SOL    HW2 1869   0.785   2.536   3.125  0.6870 -0.1450  1.0561
  684SOL     OW 1870   1.794   1.256   4.029  0.3085  0.7391 -0.4540
  684SOL    HW1 1871   1.806   1.242   4.127 -0.6161 -1.4656 -0.6053
  684SOL    HW2 1872   1.770   1.351   4.012 -0.5196  0.9314  1.5533
  685SOL     OW 1873   0.783   2.374   4.750  0.2023 -0.5560  0.0578
  685SOL    HW1 1874   0.830   2.312   4.813  0.0626 -1.1627 -0.4209
  685SOL    HW2 1875   0.790   2.338   4.657  0.5916  0.4394 -0.3139
  686SOL     OW 1876   1.860   0.123   4.070 -0.9516 -0.0364  0.0325
  686SOL    HW1 1877   1.870   0.173   3.984 -1.7508 -0.7893 -0.5057
  686SOL    HW2 1878   1.769   0.138   4.107 -0.4156  0.7652  1.0753
  687SOL     OW 1879   1.088   4.796   4.387  0.0176 -0.3587 -0.5295
  687SOL    HW1 1880   1.106   4.705   4.425  3.8508  1.0359  1.4864
  687SOL    HW2 1881   1.138   4.806   4.301 -1.0874 -0.3925 -1.1888
  688SOL     OW 1882   0.481   0.970   5.084  1.0882 -0.1404 -0.2714
  688SOL    HW1 1883   0.451   0.941   5.175 -2.0192  0.1195 -1.1044
  688SOL    HW2 1884   0.516   1.064   5.090 -1.7399  0.9783  0.3100
  689SOL     OW 1885   0.624   0.751   0.539 -0.2492  0.2329  0.1559
  689SOL    HW1 1886   0.652   0.679   0.475  0.9409  1.6309 -0.9831
  689SOL    HW2 1887   0.706   0.793   0.578 -0.8587  1.8241 -0.2076
  690SOL     OW 1888   0.943   1.213   3.919  0.1744  0.5075  0.5004
  690SOL    HW1 1889   0.969   1.260   3.835 -0.1597  0.1726  0.2084
  690SOL    HW2 1890   0.843   1.209   3.926  0.1966  0.8207  1.0748
  691SOL     OW 1891   0.766   2.979   3.632  0.3226  0.6646  0.1466
  691SOL    HW1 1892   0.711   3.008   3.710  0.5183  0.7904  0.2399
  691SOL    HW2 1893   0.858   2.953   3.663  0.7003  1.5865 -0.1448
  692SOL     OW 1894   0.492   0.218   2.935  0.0382 -0.3078 -0.0921
  692SOL    HW1 1895   0.477   0.314   2.911 -3.4844 -0.1374  2.0098
  692SOL    HW2 1896   0.485   0.162   2.853 -0.1116  1.0748 -1.0586
  693SOL     OW 1897   0.847   1.129   2.799  0.6468  0.5996 -0.7099
  693SOL    HW1 1898   0.926   1.135   2.739  1.9259 -0.9687  0.7135
  693SOL    HW2 1899   0.856   1.196   2.873  1.3409 -0.4285  0.1693
  694SOL     OW 1900   1.818   1.472   4.647  0.0210  0.1941  0.2432
  694SOL    HW1 1901   1.849   1.384   4.610  0.8585 -0.7601  3.0224
  694SOL    HW2 1902   1.892   1.538   4.642 -0.2643  0.4584 -0.8356
  695SOL     OW 1903   4.501   1.571   0.584  0.1108  0.3122  0.4650
  695SOL    HW1 1904   4.417   1.523   0.610  0.7430 -1.1190 -0.0119
  695SOL    HW2 1905   4.485   1.670   0.586 -0.9874  0.1498  2.3780
  696SOL     OW 1906   1.664   4.744   4.087 -0.3337  0.1911  0.3796
  696SOL    HW1 1907   1.728   4.820   4.101 -0.2959  0.2649 -0.1925
  696SOL    HW2 1908   1.572   4.780   4.074 -0.0813  0.2434 -1.4605
  697SOL     OW 1909   4.290   0.663   3.843 -0.8577  0.0421  0.0413
  697SOL    HW1 1910   4.291   0.754   3.802  0.1725 -0.3417 -0.8221
  697SOL    HW2 1911   4.328   0.667   3.935  1.3251  0.1536 -0.8127
  698SOL     OW 1912   2.571   0.042   4.595  0.0076  0.1190  0.6845
  698SOL    HW1 1913   2.573   0.110   4.522 -1.4781 -0.1977  0.3292
  698SOL    HW2 1914   2.603  -0.046   4.560  0.0726  0.1635  0.6314
  699SOL     OW 1915   0.827   1.086   4.328 -0.2530 -0.1820 -0.3911
  699SOL    HW1 1916   0.763   1.095   4.252 -0.1628 -0.6353 -0.5257
  699SOL    HW2 1917   0.913   1.131   4.305 -0.4902  0.3510 -0.2448
  700SOL     OW 1918   1.748   0.189   0.665 -0.1487  0.0460 -0.6708
  700SOL    HW1 1919   1.769   0.238   0.580 -1.4204  0.2142 -0.9161
  700SOL    HW2 1920   1.790   0.236   0.742  0.1254  0.5069 -1.0960
  701SOL     OW 1921   1.328   5.049   0.619 -0.6006  0.5383 -0.1333
  701SOL    HW1 1922   1.302   5.140   0.650 -0.9279  0.7676 -1.0553
  701SOL    HW2 1923   1.248   4.990   0.614 -0.3680  0.1385  0.6127
  702SOL     OW 1924   0.643   1.262   3.677 -0.0770 -0.5069  0.1445
  702SOL    HW1 1925   0.691   1.213   3.604  1.5029 -0.0313  0.8022
  702SOL    HW2 1926   0.636   1.359   3.652 -0.4449 -0.5232  0.1844
  703SOL     OW 1927   1.172   0.011   3.930 -0.2504 -0.7227  0.0814
  703SOL    HW1 1928   1.272   0.019   3.927 -0.0052 -3.1220  0.3018
  703SOL    HW2 1929   1.140  -0.032   3.845 -1.0797 -0.2954  0.1699
  704SOL     OW 1930   0.914   4.569   5.083  0.1194  0.2578 -0.0156
  704SOL    HW1 1931   0.845   4.567   5.155  1.8511  2.2708  1.8579
  704SOL    HW2 1932   0.975   4.648   5.097  2.6567 -1.2502 -1.6787
  705SOL     OW 1933   2.674   3.765   5.032  0.3485  0.2411 -0.2236
  705SOL    HW1 1934   2.769   3.796   5.038  0.8849 -1.3249 -0.1205
  705SOL    HW2 1935   2.649   3.753   4.936  0.2100  0.7430 -0.2547
  706SOL     OW 1936   4.453   2.125   0.056 -0.2253 -0.3624 -0.2936
  706SOL    HW1 1937   4.400   2.175   0.124  1.0756  1.6037 -0.6407
  706SOL    HW2 1938   4.406   2.040   0.033 -2.3953  0.5402  0.5432
  707SOL     OW 1939   1.253   2.326   3.411  0.0202 -0.6527 -0.2114
  707SOL    HW1 1940   1.351   2.312   3.395 -0.2309 -2.9642 -0.0420
  707SOL    HW2 1941   1.201   2.258   3.360 -1.5320  0.6083 -0.3648
  708SOL     OW 1942   0.872   3.073   4.828  0.0141  0.1553 -0.2164
  708SOL    HW1 1943   0.830   3.078   4.919 -0.9781  0.1452 -0.6594
  708SOL    HW2 1944   0.931   2.993   4.824  1.0810  0.8540  0.8198
  709SOL     OW 1945   0.393   3.003   1.191  0.6576 -0.3030 -0.5004
  709SOL    HW1 1946   0.334   2.931   1.155  0.9281 -0.1565 -1.2602
  709SOL    HW2 1947   0.392   3.082   1.129  1.9961 -0.4707 -0.7787
  710SOL     OW 1948   0.054   2.922   4.786 -0.3542  0.2637 -0.5407
  710SOL    HW1 1949   0.075   2.897   4.881 -1.9175 -0.1069 -0.2750
  710SOL    HW2 1950   0.020   3.016   4.783 -1.1603 -0.0220 -0.5976
  711SOL     OW 1951   0.728   3.890   2.333  0.1810  0.2329 -0.5994
  711SOL    HW1 1952   0.709   3.796   2.304  0.2467  0.4244 -1.2794
  711SOL    HW2 1953   0.762   3.942   2.255  2.7581  0.1055  0.3416
  712SOL     OW 1954   1.051   3.132   0.896 -0.5557  0.5178 -0.5526
  712SOL    HW1 1955   1.144   3.161   0.875  0.0179 -0.0651  0.9820
  712SOL    HW2 1956   1.027   3.162   0.989 -0.2069 -2.9921  0.8471
  713SOL     OW 1957   0.493   0.377   0.910  0.4951 -0.4114  0.1144
  713SOL    HW1 1958   0.427   0.308   0.879  0.9303 -1.4867  1.4840
  713SOL    HW2 1959   0.524   0.430   0.831 -1.0724 -0.6863 -0.7357
  714SOL     OW 1960   1.059   2.945   3.708  0.9737 -0.0953 -0.1929
  714SOL    HW1 1961   1.144   2.917   3.752  0.1942 -0.8521  0.8763
  714SOL    HW2 1962   1.052   3.045   3.710  2.3033  0.0385 -1.2196
  715SOL     OW 1963   0.534   2.535   1.677 -0.0974  0.2872  0.8980
  715SOL    HW1 1964   0.541   2.520   1.775 -0.1126 -1.9989  0.6081
  715SOL    HW2 1965   0.447   2.499   1.644  0.0484  0.7309  0.0051
  716SOL     OW 1966   0.888   2.247   0.989  0.0453 -0.1797  0.2381
  716SOL    HW1 1967   0.947   2.172   0.960  0.3580  0.3610 -0.5549
  716SOL    HW2 1968   0.929   2.334   0.962  0.0890  0.3299  1.8665
  717SOL     OW 1969   4.787   1.693   0.391 -0.0221  0.7780  0.0596
  717SOL    HW1 1970   4.750   1.781   0.360  0.5849  1.2668  0.6850
  717SOL    HW2 1971   4.783   1.689   0.491 -1.2199 -0.4430 -0.0037
  718SOL     OW 1972   0.610   2.862   1.827  0.0811  0.3720  0.1774
  718SOL    HW1 1973   0.662   2.947   1.821 -0.5385  0.6920 -1.0553
  718SOL    HW2 1974   0.651   2.802   1.896 -0.1273  2.1076  1.8842
  719SOL     OW 1975   0.482   3.334   4.605 -0.0532  0.1513 -0.0562
  719SOL    HW1 1976   0.465   3.375   4.515  1.2573 -0.4159 -0.5938
  719SOL    HW2 1977   0.577   3.352   4.632 -0.0693 -0.7558  0.6451
  720SOL     OW 1978   1.361   4.058   1.332  0.5655 -0.4442 -0.0096
  720SOL    HW1 1979   1.436   4.025   1.389 -0.8483 -1.3816  1.4112
  720SOL    HW2 1980   1.299   3.983   1.310 -0.1303  0.3504 -0.8859
  721SOL     OW 1981   0.332   1.908   1.669 -0.0673 -0.1189 -0.4490
  721SOL    HW1 1982   0.388   1.985   1.699  2.6243 -2.5866  1.3965
  721SOL    HW2 1983   0.358   1.882   1.576 -0.7781  0.9178 -0.9658
  722SOL     OW 1984   0.568   3.058   0.817 -0.0721  0.3755  0.4280
  722SOL    HW1 1985   0.622   3.048   0.732 -0.2448 -2.0745  0.5339
  722SOL    HW2 1986   0.507   3.136   0.808  0.8476  0.9769 -1.1763
  723SOL     OW 1987   0.477   3.301   0.444 -0.0357 -0.1915 -0.4069
  723SOL    HW1 1988   0.447   3.377   0.387 -3.7139  0.7308  2.3699
  723SOL    HW2 1989   0.534   3.336   0.519 -2.6983  0.1927  1.5548
  724SOL     OW 1990   0.990   2.218   1.234  0.0513  0.4609 -0.1759
  724SOL    HW1 1991   1.041   2.300   1.262 -2.4867  1.8605  0.6989
  724SOL    HW2 1992   0.942   2.237   1.149 -1.9206  0.5796  0.8951
  725SOL     OW 1993   4.735   3.964   2.030  0.6689  0.2243  0.4976
  725SOL    HW1 1994   4.773   3.918   2.110  0.1762  1.0338  1.2061
  725SOL    HW2 1995   4.696   3.896   1.968  0.5729 -0.3606  1.1923
  726SOL     OW 1996   4.758   3.087   0.400 -0.0797 -0.4795 -0.0402
  726SOL    HW1 1997   4.769   3.034   0.316 -0.3123  0.9545 -1.0037
  726SOL    HW2 1998   4.844   3.133   0.422 -0.9454  2.1416 -1.6366
  727SOL     OW 1999   1.360   3.672   2.377  0.0561 -0.5055  0.0272
  727SOL    HW1 2000   1.360   3.706   2.471  0.0297  0.4859 -0.3167
  727SOL    HW2 2001   1.308   3.736   2.319 -1.0009 -1.7406 -0.4387
  728SOL     OW 2002   0.009   3.722   4.816 -0.1567  0.4834  0.0868
  728SOL    HW1 2003  -0.006   3.679   4.905  1.4105  1.7726  1.0369
  728SOL    HW2 2004   0.107   3.735   4.803 -0.4562  1.5171 -1.2608
  729SOL     OW 2005   0.940   1.735   0.594 -0.5441 -0.1481 -0.3875
  729SOL    HW1 2006   0.985   1.648   0.617 -1.4668 -0.6264 -0.3475
  729SOL    HW2 2007   0.899   1.774   0.677  1.4260  1.2942  0.0009
  730SOL     OW 2008   4.320   3.665   2.289 -0.0865  0.5288 -0.3681
  730SOL    HW1 2009   4.405   3.616   2.311 -1.3977 -1.7332 -0.0104
  730SOL    HW2 2010   4.282   3.628   2.204 -1.9726 -0.2981  0.7752
  731SOL     OW 2011   0.533   4.009   4.899 -0.2713  0.4463  0.1598
  731SOL    HW1 2012   0.631   4.028   4.893  0.7705 -3.6135  1.2615
  731SOL    HW2 2013   0.493   4.067   4.970  1.7111  0.9885  0.9210
  732SOL     OW 2014   0.432   3.462   1.821 -0.5041  0.7592  0.0699
  732SOL    HW1 2015   0.528   3.489   1.808 -0.5164  0.6365 -0.2836
  732SOL    HW2 2016   0.379   3.542   1.850 -0.6418  1.2554 -1.4814
  733SOL     OW 2017   1.311   1.483   4.232  0.1514 -0.0481 -0.5403
  733SOL    HW1 2018   1.312   1.520   4.325 -1.6138  0.9501 -0.8574
  733SOL    HW2 2019   1.248   1.537   4.176  2.0910  0.1393 -2.6648
  734SOL     OW 2020   1.300   2.203   0.910 -0.0154 -0.3804 -0.8863
  734SOL    HW1 2021   1.340   2.295   0.917 -0.9384 -0.0011 -0.4547
  734SOL    HW2 2022   1.243   2.197   0.828  0.2657 -0.6637 -1.0640
  735SOL     OW 2023   0.291   2.424   1.586 -0.0401  0.4700  0.3944
  735SOL    HW1 2024   0.192   2.419   1.599  0.0210 -0.1079  0.7077
  735SOL    HW2 2025   0.311   2.445   1.491 -0.4623 -0.4972  0.0734
  736SOL     OW 2026   0.267   2.705   0.551  0.0397 -0.0458 -0.3895
  736SOL    HW1 2027   0.176   2.694   0.591  0.0977 -1.1399 -0.5173
  736SOL    HW2 2028   0.258   2.731   0.455 -0.2138 -1.7363 -0.8746
  737SOL     OW 2029   0.833   2.522   1.847 -0.1909  0.1861 -0.0175
  737SOL    HW1 2030   0.774   2.454   1.804  0.7004 -1.9977  2.0452
  737SOL    HW2 2031   0.785   2.565   1.924  0.1533  0.0055  0.2980
  738SOL     OW 2032   1.132   3.658   0.988 -0.1841  0.1425  0.2628
  738SOL    HW1 2033   1.079   3.698   1.062 -1.0133 -1.1470  0.4007
  738SOL    HW2 2034   1.070   3.616   0.921  0.5618  0.9809 -0.9926
  739SOL     OW 2035   4.791   2.112   0.886 -0.3308 -0.3720  0.1129
  739SOL    HW1 2036   4.838   2.091   0.972  1.2073 -0.3259 -0.6828
  739SOL    HW2 2037   4.796   2.033   0.825  1.0853  0.5027 -0.9823
  740SOL     OW 2038   4.770   1.627   0.657 -0.1863 -0.5395 -0.3858
  740SOL    HW1 2039   4.811   1.562   0.721  0.4033  1.4935  1.4213
  740SOL    HW2 2040   4.689   1.587   0.616  0.0585 -2.3515  0.7981
  741SOL     OW 2041   1.656   4.686   1.042 -0.2052  0.1936  0.3178
  741SOL    HW1 2042   1.620   4.776   1.067  0.8507  0.8227 -0.3434
  741SOL    HW2 2043   1.719   4.695   0.965 -2.0466 -1.4550 -1.5055
  742SOL     OW 2044   0.422   2.092   1.085 -0.1015  0.1013 -0.2248
  742SOL    HW1 2045   0.479   2.128   1.011  1.5944 -0.2790  0.8401
  742SOL    HW2 2046   0.398   1.997   1.067 -0.2591  0.2076 -0.5853
  743SOL     OW 2047   1.897   2.922   0.286 -0.1450  0.3259 -0.6474
  743SOL    HW1 2048   1.937   2.970   0.364 -0.0451  0.3725 -0.7280
  743SOL    HW2 2049   1.895   2.824   0.306 -0.3895  0.3672 -0.4652
  744SOL     OW 2050   1.646   3.979   4.548 -0.4945 -0.2147  0.5144
  744SOL    HW1 2051   1.668   4.023   4.634 -0.1612  0.5363  0.0533
  744SOL    HW2 2052   1.709   3.903   4.532  1.2504  1.3541 -0.3653
  745SOL     OW 2053   1.201   3.593   4.983  0.1837  0.1070  0.1727
  745SOL    HW1 2054   1.224   3.683   5.019 -0.1385 -0.1387  1.0296
  745SOL    HW2 2055   1.113   3.598   4.935 -1.6605 -0.3968  3.2389
  746SOL     OW 2056   1.116   0.030   2.707 -0.5022  0.3963  0.1197
  746SOL    HW1 2057   1.179   0.019   2.784 -1.1772 -0.7505  0.5318
  746SOL    HW2 2058   1.169   0.036   2.622  0.2264  1.1779  0.6152
  747SOL     OW 2059   2.320   4.126   5.045 -0.0200 -0.4565 -0.0735
  747SOL    HW1 2060   2.418   4.109   5.030  0.4744  1.2664  0.9520
  747SOL    HW2 2061   2.306   4.159   5.138 -1.3644  0.8419 -0.6925
  748SOL     OW 2062   0.193   1.505   1.101  0.3966 -0.0690  0.1374
  748SOL    HW1 2063   0.284   1.472   1.076  1.1479  1.4601  0.7079
  748SOL    HW2 2064   0.201   1.569   1.178 -0.9674  1.2674 -0.7651
  749SOL     OW 2065   1.613   1.194   1.261  0.6989 -0.2928  0.4071
  749SOL    HW1 2066   1.595   1.176   1.357 -1.4141 -0.8991 -0.0371
  749SOL    HW2 2067   1.571   1.123   1.205  0.5241  0.8761 -1.0253
  750SOL     OW 2068   1.278   2.085   1.685 -0.0494  0.1617 -0.0227
  750SOL    HW1 2069   1.282   2.169   1.739  1.2359  1.2566 -1.7230
  750SOL    HW2 2070   1.196   2.087   1.627 -1.0662 -0.7064  1.3136
  751SOL     OW 2071   1.063   2.022   0.969 -0.4251 -0.5055  0.4659
  751SOL    HW1 2072   1.143   2.082   0.975 -1.4785  1.1007 -0.6758
  751SOL    HW2 2073   1.066   1.955   1.043  0.4623  1.3884  2.2457
  752SOL     OW 2074   0.848   2.263   0.098  0.4682 -0.0883 -0.2771
  752SOL    HW1 2075   0.832   2.362   0.092  1.4754  0.1379  0.4163
  752SOL    HW2 2076   0.763   2.217   0.124 -0.7656  0.2321 -3.3677
  753SOL     OW 2077   4.772   2.558   0.469 -0.8684 -0.3336 -0.2927
  753SOL    HW1 2078   4.789   2.606   0.555 -2.8767 -0.7234  0.3734
  753SOL    HW2 2079   4.832   2.477   0.463 -1.5715 -1.0147  1.3493
  754SOL     OW 2080   0.611   4.690   1.581  0.0371 -0.1732  0.3429
  754SOL    HW1 2081   0.618   4.591   1.573  1.4454 -0.1181  0.5868
  754SOL    HW2 2082   0.617   4.731   1.490 -1.9102 -0.3373  0.0885
  755SOL     OW 2083   1.407   2.161   4.334 -0.0165 -0.3937 -0.2403
  755SOL    HW1 2084   1.339   2.093   4.308 -0.3695 -0.3887  0.6416
  755SOL    HW2 2085   1.371   2.219   4.407 -0.1338  1.4396 -1.6876
  756SOL     OW 2086   0.865   2.185   2.156 -0.4634 -0.3672  0.1857
  756SOL    HW1 2087   0.933   2.181   2.082 -1.2411 -1.7822 -0.5168
  756SOL    HW2 2088   0.891   2.255   2.222  1.5011 -0.6512 -0.2179
  757SOL     OW 2089   0.524   3.430   1.280  0.1997 -0.1531  0.2483
  757SOL    HW1 2090   0.583   3.374   1.338  1.1246  0.0198 -0.4988
  757SOL    HW2 2091   0.560   3.431   1.186 -0.0046  1.3730  0.1549
  758SOL     OW 2092   0.504   0.567   0.293 -0.2951  0.6432  0.2926
  758SOL    HW1 2093   0.557   0.513   0.358 -0.4074  0.1689  0.0017
  758SOL    HW2 2094   0.410   0.532   0.290 -0.5288  1.2390  0.5370
  759SOL     OW 2095   0.680   2.747   0.457 -0.4687  0.3592 -0.5039
  759SOL    HW1 2096   0.626   2.700   0.387  0.7925  0.5037 -1.6099
  759SOL    HW2 2097   0.769   2.773   0.419  0.3810  0.1625  1.2478
  760SOL     OW 2098   0.168   3.884   0.156  0.1499  0.3650  0.2337
  760SOL    HW1 2099   0.223   3.913   0.234  0.1211  0.9395  0.0460
  760SOL    HW2 2100   0.228   3.863   0.079  0.1228  0.9569  0.0403
  761SOL     OW 2101   2.688   2.560   0.052 -0.2554 -0.3044 -0.1360
  761SOL    HW1 2102   2.603   2.539   0.002  0.2034  0.1291 -1.1175
  761SOL    HW2 2103   2.723   2.476   0.093 -0.6620 -0.6706 -0.5142
  762SOL     OW 2104   1.448   3.968   1.766 -0.7486 -0.2516 -0.0282
  762SOL    HW1 2105   1.527   3.906   1.766 -0.8864 -0.5115  2.1033
  762SOL    HW2 2106   1.474   4.055   1.725  0.1268 -0.9153 -0.9413
  763SOL     OW 2107   0.890   3.566   0.882 -0.5766  0.2676  0.0672
  763SOL    HW1 2108   0.892   3.574   0.782 -0.2576 -1.7449 -0.1306
  763SOL    HW2 2109   0.830   3.636   0.920 -0.1918  1.4853 -1.4779
  764SOL     OW 2110   1.299   3.286   1.236 -0.1564 -0.3686  0.0570
  764SOL    HW1 2111   1.321   3.350   1.162  0.2230  0.7921  1.1396
  764SOL    HW2 2112   1.252   3.206   1.198 -2.6095  1.4971 -1.0761
  765SOL     OW 2113   0.860   3.370   2.050  0.5683  0.4182 -0.3200
  765SOL    HW1 2114   0.858   3.341   1.954  0.6688 -0.8446  0.0402
  765SOL    HW2 2115   0.816   3.459   2.059  0.6638  0.6103 -1.5543
  766SOL     OW 2116   1.248   2.855   5.021 -0.0468 -0.6624 -0.3297
  766SOL    HW1 2117   1.319   2.921   4.996  1.4432 -1.3005  1.9706
  766SOL    HW2 2118   1.231   2.860   5.119  1.3573 -4.7849  0.3011
  767SOL     OW 2119   5.081   0.854   0.571 -0.2715  0.7898  0.2340
  767SOL    HW1 2120   5.008   0.907   0.528  0.6204  0.2823 -2.0855
  767SOL    HW2 2121   5.169   0.884   0.534  0.3925 -0.9978  0.2709
  768SOL     OW 2122   0.882   3.172   0.645  0.7301  0.1763 -0.1145
  768SOL    HW1 2123   0.814   3.100   0.633  0.6546  0.4336 -1.3083
  768SOL    HW2 2124   0.954   3.140   0.706  0.5840 -0.8279 -0.4577
  769SOL     OW 2125   1.252   2.782   4.452  0.5485  0.8321  0.0939
  769SOL    HW1 2126   1.317   2.714   4.486 -0.0964 -0.1720 -0.6114
  769SOL    HW2 2127   1.301   2.863   4.421  1.4629  0.1329 -0.3470
  770SOL     OW 2128   1.226   1.228   1.644  0.3720  0.0806 -0.3920
  770SOL    HW1 2129   1.263   1.306   1.694  2.6552 -0.9601 -0.3391
  770SOL    HW2 2130   1.177   1.167   1.707  0.7739  0.2015  0.0354
  771SOL     OW 2131   5.015   3.520   0.876 -0.0747  0.2828 -0.3096
  771SOL    HW1 2132   4.948   3.521   0.802  0.6866 -1.3399 -1.0724
  771SOL    HW2 2133   5.107   3.531   0.837  0.1463  2.2270  0.6930
  772SOL     OW 2134   5.080   2.672   1.109 -0.5403  0.5167 -0.6341
  772SOL    HW1 2135   5.069   2.589   1.055 -0.3840  0.6943 -0.9430
  772SOL    HW2 2136   5.001   2.732   1.094 -0.7493  0.3386 -0.2565
  773SOL     OW 2137   4.334   2.479   0.483 -0.1063 -0.2132  0.3584
  773SOL    HW1 2138   4.363   2.554   0.423 -0.5640 -0.5045 -0.2336
  773SOL    HW2 2139   4.236   2.488   0.502 -0.4515 -1.3653 -0.7630
  774SOL     OW 2140   0.698   0.775   1.902  0.1652 -0.6580 -0.3281
  774SOL    HW1 2141   0.665   0.864   1.933 -1.9190 -0.1489 -3.5780
  774SOL    HW2 2142   0.653   0.702   1.954 -1.9101  0.1574 -0.8857
  775SOL     OW 2143   0.713   2.890   1.037 -0.5960 -0.1435 -0.0780
  775SOL    HW1 2144   0.704   2.925   1.130  0.8185 -1.1821  0.4835
  775SOL    HW2 2145   0.647   2.936   0.978 -1.5325  0.5254  1.4241
  776SOL     OW 2146   1.318   3.380   1.781  0.0309 -0.3909 -0.9789
  776SOL    HW1 2147   1.265   3.355   1.863  0.8012 -0.6971 -0.5587
  776SOL    HW2 2148   1.264   3.440   1.724  0.0493  1.1776  0.5642
  777SOL     OW 2149   1.626   1.766   1.143  0.2043 -0.3403  0.3747
  777SOL    HW1 2150   1.717   1.749   1.180 -0.0457 -0.1416  1.1134
  777SOL    HW2 2151   1.585   1.680   1.112  0.6709 -0.4154 -0.0409
  778SOL     OW 2152   1.234   3.825   0.404 -0.0977 -0.0136 -0.0805
  778SOL    HW1 2153   1.218   3.753   0.336 -2.0382  0.4581 -0.1656
  778SOL    HW2 2154   1.192   3.910   0.373  0.6191  0.7092  0.8628
  779SOL     OW 2155   0.528   2.598   0.273  0.0489  0.8409 -0.5584
  779SOL    HW1 2156   0.441   2.568   0.234 -0.1847 -0.8820  1.1595
  779SOL    HW2 2157   0.604   2.557   0.222 -0.2559 -1.6544  0.8157
  780SOL     OW 2158   4.535   1.713   1.257  0.1165  0.0146 -0.1701
  780SOL    HW1 2159   4.515   1.807   1.227  0.2122 -0.4325 -1.7050
  780SOL    HW2 2160   4.451   1.660   1.259  0.3001 -0.3156 -0.9669
  781SOL     OW 2161   0.959   3.606   4.846  0.1608 -0.3152 -0.4259
  781SOL    HW1 2162   0.979   3.517   4.806 -0.4397 -0.6950  0.1086
  781SOL    HW2 2163   0.869   3.604   4.890  0.1699  0.5316 -0.3475
  782SOL     OW 2164   0.810   1.411   0.485 -0.0993  0.5382  0.3164
  782SOL    HW1 2165   0.863   1.433   0.567  0.2627 -0.0760  0.2544
  782SOL    HW2 2166   0.812   1.489   0.422  0.6424  0.5716  0.3667
  783SOL     OW 2167   4.553   0.676   0.845  0.2486  0.0308 -0.5054
  783SOL    HW1 2168   4.653   0.666   0.843  0.0962 -2.6545  0.8522
  783SOL    HW2 2169   4.519   0.678   0.751  1.3120 -4.5022 -1.2496
  784SOL     OW 2170   1.820   1.178   1.849  0.3422  0.0840  0.4725
  784SOL    HW1 2171   1.854   1.088   1.822  2.1215  0.8987 -0.1519
  784SOL    HW2 2172   1.760   1.168   1.929  0.2487 -1.6599  0.2326
  785SOL     OW 2173   0.699   3.138   1.797 -0.0103  0.3846 -0.2218
  785SOL    HW1 2174   0.622   3.178   1.747 -0.3131  1.3360  0.9288
  785SOL    HW2 2175   0.773   3.205   1.802  0.8798 -0.4892 -1.2332
  786SOL     OW 2176   0.284   3.060   0.453 -0.1612 -0.1803  0.6794
  786SOL    HW1 2177   0.332   3.148   0.447  0.7581 -0.6127  1.3609
  786SOL    HW2 2178   0.330   3.002   0.520 -1.7796 -0.5539  1.5132
  787SOL     OW 2179   0.561   4.101   0.920 -0.1516 -0.3289  0.5370
  787SOL    HW1 2180   0.594   4.132   0.831  0.3027 -0.0310  0.8025
  787SOL    HW2 2181   0.463   4.079   0.915  0.1274 -1.4623 -0.3265
  788SOL     OW 2182   0.890   1.364   4.557  0.7793 -0.0331  0.1732
  788SOL    HW1 2183   0.818   1.306   4.594  1.9122 -0.7544  1.3629
  788SOL    HW2 2184   0.893   1.355   4.458 -0.2693 -0.5725  0.1789
  789SOL     OW 2185   5.052   2.149   0.062  0.0015  0.2986 -0.0163
  789SOL    HW1 2186   4.990   2.196  -0.001 -1.0223  0.5681  1.1647
  789SOL    HW2 2187   5.004   2.071   0.103 -0.0818  1.3603  2.0064
  790SOL     OW 2188   0.405   1.117   1.498 -0.3017  0.2409 -0.2522
  790SOL    HW1 2189   0.493   1.113   1.450  1.2743  1.6017  2.2937
  790SOL    HW2 2190   0.337   1.162   1.440  1.7378  2.6244 -0.9954
  791SOL     OW 2191   0.650   1.322   4.960 -0.5384  0.1451  0.5677
  791SOL    HW1 2192   0.632   1.246   4.897  0.3186 -0.3588  0.9173
  791SOL    HW2 2193   0.599   1.308   5.045 -0.1369 -0.2128  0.7546
  792SOL     OW 2194   1.424   1.868   1.307 -0.8504 -0.0524 -0.1603
  792SOL    HW1 2195   1.446   1.942   1.370 -0.1657 -1.3028  1.1083
  792SOL    HW2 2196   1.508   1.830   1.268 -1.2110 -0.0028 -1.0305
  793SOL     OW 2197   0.019   1.437   0.065  0.0771  0.3975  0.5361
  793SOL    HW1 2198  -0.018   1.434   0.157 -1.3031 -0.6397 -0.0167
  793SOL    HW2 2199  -0.007   1.354   0.015  2.5337 -0.0287 -0.1578
  794SOL     OW 2200   1.916   0.722   4.969  0.2815  0.4713 -0.0328
  794SOL    HW1 2201   1.993   0.680   4.920 -0.4517  0.6474 -1.3766
  794SOL    HW2 2202   1.947   0.755   5.058  1.9229  1.1301 -0.8080
  795SOL     OW 2203   1.566   2.851   3.966  0.1991  0.0887 -0.2843
  795SOL    HW1 2204   1.476   2.863   3.923  0.2098  0.4061 -0.2220
  795SOL    HW2 2205   1.573   2.910   4.046  0.4948  0.1317 -0.3393
  796SOL     OW 2206   0.930   2.658   1.300 -0.3895  0.1603  0.1081
  796SOL    HW1 2207   0.879   2.593   1.357  0.0619 -0.1085  0.2156
  796SOL    HW2 2208   0.948   2.741   1.353  1.7011 -0.8339  1.0639
  797SOL     OW 2209   1.473   1.980   4.817 -0.1593 -0.0012  0.1970
  797SOL    HW1 2210   1.459   2.073   4.850  0.9416 -0.2344  1.4226
  797SOL    HW2 2211   1.393   1.950   4.765 -1.2549  1.0120  1.2384
  798SOL     OW 2212   1.004   3.185   0.404 -0.0691  0.1041 -0.6550
  798SOL    HW1 2213   0.953   3.209   0.487 -0.2480  0.0387 -0.7450
  798SOL    HW2 2214   1.097   3.157   0.429  0.0365  0.5630 -0.5202
  799SOL     OW 2215   0.768   1.466   0.191  0.2966 -0.2035 -0.1457
  799SOL    HW1 2216   0.728   1.446   0.101 -1.4027 -0.5040  0.6394
  799SOL    HW2 2217   0.824   1.388   0.220  2.2807  0.5695 -1.6327
  800SOL     OW 2218   1.290   2.363   1.886 -0.3215 -0.1597  0.3865
  800SOL    HW1 2219   1.377   2.411   1.897  0.1334  0.0527 -3.0323
  800SOL    HW2 2220   1.214   2.428   1.897  0.2531  1.2973 -3.0847
  801SOL     OW 2221   1.268   2.091   4.646 -0.0694 -0.0587  0.1618
  801SOL    HW1 2222   1.196   2.094   4.576 -0.2195  0.9727  0.3539
  801SOL    HW2 2223   1.330   2.168   4.633  1.4668 -1.3362 -0.4599
  802SOL     OW 2224   1.587   2.984   2.076  0.0604  0.3382 -0.0066
  802SOL    HW1 2225   1.515   3.045   2.043 -1.2350 -0.0977  1.8974
  802SOL    HW2 2226   1.597   2.908   2.012 -0.3097  1.0342 -0.9179
  803SOL     OW 2227   2.156   1.199   1.714 -0.1044 -0.0414  0.3879
  803SOL    HW1 2228   2.109   1.122   1.756  0.7108  0.0201  1.4511
  803SOL    HW2 2229   2.109   1.284   1.737 -1.6421 -0.2631 -1.6809
  804SOL     OW 2230   0.076   1.722   0.283 -0.4790  0.6514  0.3721
  804SOL    HW1 2231   0.122   1.750   0.199  0.2545 -1.1237  0.1399
  804SOL    HW2 2232   0.138   1.733   0.360 -0.1777 -0.2951  0.2760
  805SOL     OW 2233   0.613   0.779   2.397  0.1610  0.3919 -0.4831
  805SOL    HW1 2234   0.692   0.826   2.357  3.6367 -2.4620  2.3285
  805SOL    HW2 2235   0.578   0.713   2.331  2.5698 -0.8299 -0.6539
  806SOL     OW 2236   1.609   3.739   1.692 -0.4650  0.6896 -0.7065
  806SOL    HW1 2237   1.567   3.678   1.760 -0.7022  0.1076 -1.3629
  806SOL    HW2 2238   1.705   3.713   1.680 -0.4423  0.7448 -0.6408
  807SOL     OW 2239   0.040   0.887   4.660 -0.5222 -0.1429  0.3230
  807SOL    HW1 2240   0.047   0.818   4.732  1.1854 -0.7386 -0.3673
  807SOL    HW2 2241  -0.044   0.874   4.609 -1.2606 -0.3565  1.5475
  808SOL     OW 2242   0.016   1.420   0.604 -0.1981  0.2215 -0.6521
  808SOL    HW1 2243  -0.042   1.485   0.554  0.0931  1.7587  0.9204
  808SOL    HW2 2244   0.073   1.469   0.669 -0.4929 -1.6738  1.1419
  809SOL     OW 2245   1.625   1.895   0.551 -0.6403 -0.8284 -0.0933
  809SOL    HW1 2246   1.542   1.867   0.504  0.2455 -1.0641 -1.6035
  809SOL    HW2 2247   1.657   1.982   0.514 -0.9774 -0.0208  1.4733
  810SOL     OW 2248   5.065   3.604   2.023  0.0094 -0.0960 -0.1879
  810SOL    HW1 2249   4.966   3.595   2.008  0.1335  0.1808 -1.2456
  810SOL    HW2 2250   5.081   3.644   2.113 -0.8922  1.1603 -0.5562
  811SOL     OW 2251   5.062   3.415   4.249 -0.2931 -0.0565 -0.0130
  811SOL    HW1 2252   5.003   3.345   4.209 -0.7897  0.5077 -0.2838
  811SOL    HW2 2253   5.006   3.488   4.287  0.2304  0.5095 -0.3050
  812SOL     OW 2254   4.087   2.653   0.484  0.0588 -0.2961 -0.0457
  812SOL    HW1 2255   4.041   2.575   0.441 -2.0861  1.0247 -0.2779
  812SOL    HW2 2256   4.038   2.678   0.567  1.8611 -0.3327  1.0991
  813SOL     OW 2257   4.719   3.452   1.170 -0.3627 -0.5692  0.5860
  813SOL    HW1 2258   4.757   3.451   1.263 -1.3540 -0.1222  1.0025
  813SOL    HW2 2259   4.664   3.370   1.156 -1.5572  0.1442  0.9750
  814SOL     OW 2260   1.065   2.853   0.836 -0.0231 -0.1239 -0.1534
  814SOL    HW1 2261   0.986   2.797   0.812  0.5369 -0.4400 -1.3599
  814SOL    HW2 2262   1.035   2.947   0.853 -0.8131 -0.5133  0.6933
  815SOL     OW 2263   0.723   1.782   0.427  0.4089 -0.2816  0.2180
  815SOL    HW1 2264   0.793   1.767   0.498  0.4354  1.5838  0.6290
  815SOL    HW2 2265   0.763   1.833   0.351 -1.1619  3.8647  1.9263
  816SOL     OW 2266   0.263   3.814   1.357 -0.2148  0.1789  0.2649
  816SOL    HW1 2267   0.219   3.902   1.370 -0.3146  0.2342 -0.4614
  816SOL    HW2 2268   0.198   3.749   1.318  0.1087  0.0242 -0.0183
  817SOL     OW 2269   0.134   2.244   1.056 -0.0208 -0.1069 -0.2259
  817SOL    HW1 2270   0.226   2.257   1.094  0.1455  1.4211 -1.0811
  817SOL    HW2 2271   0.141   2.191   0.971  0.0016 -0.4579 -0.0073
  818SOL     OW 2272   1.740   2.141   1.120 -0.0597  0.3298  0.4726
  818SOL    HW1 2273   1.653   2.128   1.168  0.0043  1.6510  1.0003
  818SOL    HW2 2274   1.812   2.094   1.170 -0.5665 -1.4596 -0.4069
  819SOL     OW 2275   1.097   2.544   1.088 -0.8339  0.0215 -0.7604
  819SOL    HW1 2276   1.036   2.551   1.009 -0.2332 -0.1573 -1.2529
  819SOL    HW2 2277   1.054   2.587   1.168 -0.8913  1.4408 -1.5250
  820SOL     OW 2278   0.642   2.432   1.013 -0.0264  0.3372 -0.7138
  820SOL    HW1 2279   0.695   2.515   1.027 -0.9324  1.1668 -1.9492
  820SOL    HW2 2280   0.700   2.352   1.026  2.0276  1.2093 -3.5417
  821SOL     OW 2281   0.341   1.122   1.040  0.2703  0.1184 -0.2414
  821SOL    HW1 2282   0.433   1.119   1.079  0.0094 -1.5860  0.3237
  821SOL    HW2 2283   0.347   1.145   0.943  1.3594 -0.5937 -0.3553
  822SOL     OW 2284   0.938   2.222   4.913  0.0384 -0.0793  0.2089
  822SOL    HW1 2285   1.019   2.163   4.915 -0.6804 -1.1517 -0.5998
  822SOL    HW2 2286   0.888   2.213   4.999 -0.2357 -0.9337 -0.0280
  823SOL     OW 2287   0.658   1.813   4.597  0.5265  0.0208 -0.4438
  823SOL    HW1 2288   0.732   1.762   4.641 -0.5130 -1.9571 -0.8642
  823SOL    HW2 2289   0.666   1.910   4.621  2.6907 -0.2583  0.2548
  824SOL     OW 2290   0.583   1.160   1.721 -0.5729 -0.1117 -0.7614
  824SOL    HW1 2291   0.667   1.129   1.678 -1.5223 -1.8917 -1.4072
  824SOL    HW2 2292   0.505   1.142   1.661 -1.5902  0.1424  0.4287
  825SOL     OW 2293   4.883   4.018   1.371 -0.3023  0.3206  0.2387
  825SOL    HW1 2294   4.801   3.993   1.423 -0.2901  0.2495  0.2251
  825SOL    HW2 2295   4.899   4.116   1.377 -1.2514  0.5831 -0.9938
  826SOL     OW 2296   0.561   1.702   1.127  0.0023 -0.1667 -0.2782
  826SOL    HW1 2297   0.525   1.610   1.136  0.1920 -0.2741 -0.5870
  826SOL    HW2 2298   0.656   1.705   1.159 -0.0195 -0.0669 -0.2207
  827SOL     OW 2299   0.576   2.232   2.162  0.3963 -0.2085  0.2275
  827SOL    HW1 2300   0.676   2.237   2.168  0.4112 -0.3702  0.1128
  827SOL    HW2 2301   0.549   2.143   2.125  0.1624 -0.5969  1.2953
  828SOL     OW 2302   4.123   1.343   4.779  0.3854  0.3566  0.0027
  828SOL    HW1 2303   4.192   1.271   4.784  0.4601  0.4460  0.3096
  828SOL    HW2 2304   4.109   1.370   4.684  1.0638  0.6195 -0.0284
  829SOL     OW 2305   1.585   2.581   4.140 -0.5952 -0.4307 -0.3327
  829SOL    HW1 2306   1.544   2.492   4.121  1.8683 -1.2110 -2.8212
  829SOL    HW2 2307   1.567   2.643   4.063  0.3764  0.1191 -0.1442
  830SOL     OW 2308   0.758   1.697   2.341  0.2112  0.5965 -0.0450
  830SOL    HW1 2309   0.673   1.666   2.384  0.7693 -0.8885  0.0392
  830SOL    HW2 2310   0.751   1.794   2.320 -1.5952  0.4518 -0.2563
  831SOL     OW 2311   0.735   4.442   1.547 -0.0822  0.8457  0.2860
  831SOL    HW1 2312   0.829   4.413   1.562  0.7292  3.0231 -0.1716
  831SOL    HW2 2313   0.701   4.402   1.462  0.6674  0.5477  0.1172
  832SOL     OW 2314   0.984   3.138   1.606  0.0795 -0.3167 -0.4464
  832SOL    HW1 2315   1.048   3.173   1.538  0.0310 -2.2729 -1.5900
  832SOL    HW2 2316   0.916   3.208   1.628  2.0823  1.5321  0.1935
  833SOL     OW 2317   0.499   1.963   2.051  0.0746  0.0430 -0.5148
  833SOL    HW1 2318   0.514   1.886   1.989  0.3894  0.4436 -0.9413
  833SOL    HW2 2319   0.411   1.952   2.098  0.8317 -1.4056  0.6440
  834SOL     OW 2320   1.663   0.746   1.039 -0.1410  0.0044  0.1225
  834SOL    HW1 2321   1.684   0.668   0.981  1.3698 -0.0903  0.7567
  834SOL    HW2 2322   1.660   0.717   1.135 -0.7607  0.5069  0.2660
  835SOL     OW 2323   2.246   3.328   1.233 -0.3302 -0.3155 -0.2036
  835SOL    HW1 2324   2.185   3.324   1.154  0.2517 -0.4681 -0.6503
  835SOL    HW2 2325   2.337   3.359   1.204 -0.5733  1.3516  0.6914
  836SOL     OW 2326   0.728   2.276   1.748  0.1538 -0.3029  0.2444
  836SOL    HW1 2327   0.726   2.258   1.649  0.6462  1.0424 -0.0259
  836SOL    HW2 2328   0.793   2.215   1.792  2.0344  0.9387 -0.6964
  837SOL     OW 2329   4.647   2.865   2.059  0.0975 -0.2938 -0.3062
  837SOL    HW1 2330   4.591   2.807   2.119 -0.9316 -0.7752 -1.6838
  837SOL    HW2 2331   4.602   2.874   1.970  1.6791  0.2356 -1.0841
  838SOL     OW 2332   0.407   1.822   4.495  0.2306 -0.1536  0.0349
  838SOL    HW1 2333   0.334   1.804   4.561 -0.8270 -0.5606 -1.2105
  838SOL    HW2 2334   0.495   1.795   4.535 -0.3930 -0.5028  1.2251
  839SOL     OW 2335   0.615   2.178   0.624 -0.0678 -0.3968 -0.3198
  839SOL    HW1 2336   0.547   2.246   0.651 -0.3299 -1.0788  0.8052
  839SOL    HW2 2337   0.689   2.223   0.574 -0.6386  0.5758 -0.3190
  840SOL     OW 2338   1.547   1.133   1.533  0.4512  0.1487  0.5312
  840SOL    HW1 2339   1.477   1.140   1.604  1.7238  0.8442  1.7948
  840SOL    HW2 2340   1.637   1.148   1.574  1.4377 -1.5087 -0.8825
  841SOL     OW 2341   4.334   3.953   1.979  0.3689 -0.5650  0.2373
  841SOL    HW1 2342   4.360   3.949   2.076 -1.1251 -2.1250  0.6225
  841SOL    HW2 2343   4.244   3.995   1.971 -0.4445 -2.3115 -0.2205
  842SOL     OW 2344   0.715   4.589   0.499  0.1949 -0.1634  0.3332
  842SOL    HW1 2345   0.733   4.492   0.518  0.2498 -0.5805 -1.6648
  842SOL    HW2 2346   0.724   4.606   0.401  0.4472  1.9394  0.6782
  843SOL     OW 2347   0.628   2.985   1.309 -0.4952  0.1475  0.2001
  843SOL    HW1 2348   0.537   2.997   1.269 -0.2587  0.2786 -0.3128
  843SOL    HW2 2349   0.625   2.915   1.380 -0.9636  0.0454  0.0814
  844SOL     OW 2350   0.975   1.978   1.334 -0.3495  0.1833 -0.3780
  844SOL    HW1 2351   0.904   1.980   1.405 -0.5909  0.7040 -0.6284
  844SOL    HW2 2352   0.990   2.070   1.299  0.1932  0.0214 -0.5901
  845SOL     OW 2353   1.159   0.815   0.345 -0.1654 -0.3485  0.3060
  845SOL    HW1 2354   1.082   0.766   0.302 -0.2476  0.9560 -1.1123
  845SOL    HW2 2355   1.197   0.759   0.419 -1.7777 -1.4945  0.3232
  846SOL     OW 2356   0.182   2.242   0.194 -0.1296 -0.0786  0.0017
  846SOL    HW1 2357   0.101   2.218   0.140  0.3824 -0.2910 -0.6881
  846SOL    HW2 2358   0.156   2.258   0.289 -1.2745  1.6217 -0.5601
  847SOL     OW 2359   1.071   2.760   3.213 -0.2026  0.4128  0.6054
  847SOL    HW1 2360   1.066   2.824   3.289 -0.6638  0.2296  0.7316
  847SOL    HW2 2361   1.136   2.686   3.235 -0.4923  0.2475  0.9050
  848SOL     OW 2362   4.912   2.542   0.088 -0.4392  0.1074 -0.1955
  848SOL    HW1 2363   4.887   2.446   0.101 -0.0751  0.1662  1.0168
  848SOL    HW2 2364   4.830   2.599   0.088 -0.5380 -0.0128  0.9275
  849SOL     OW 2365   2.024   1.306   2.079  0.3486  0.0059 -0.3368
  849SOL    HW1 2366   2.099   1.367   2.106  0.7221 -0.8016  0.5026
  849SOL    HW2 2367   1.988   1.335   1.990  0.9498  1.0474 -0.2591
  850SOL     OW 2368   0.198   3.592   1.603  0.3808 -0.0064  0.2782
  850SOL    HW1 2369   0.246   3.651   1.538 -0.3956  0.7584  0.3786
  850SOL    HW2 2370   0.242   3.600   1.693 -0.1068  0.9549  0.4530
  851SOL     OW 2371   5.011   0.674   1.268 -0.0295  0.3207  0.0621
  851SOL    HW1 2372   5.065   0.604   1.315  2.6762  3.0904  1.4120
  851SOL    HW2 2373   5.071   0.727   1.208 -1.9909  1.4626 -0.9733
  852SOL     OW 2374   5.039   3.695   1.716  0.2820  0.2879  0.0472
  852SOL    HW1 2375   5.127   3.661   1.680  0.0655 -1.1981  0.8432
  852SOL    HW2 2376   5.043   3.697   1.816 -1.2911 -1.8720  0.1967
  853SOL     OW 2377   4.796   3.478   4.593  0.3705 -0.0482 -0.7755
  853SOL    HW1 2378   4.814   3.409   4.522  0.5402 -0.7084 -0.1029
  853SOL    HW2 2379   4.710   3.455   4.639  1.0818 -0.5702  0.3304
  854SOL     OW 2380   0.066   3.327   1.526 -0.0271  0.2659 -0.7943
  854SOL    HW1 2381   0.126   3.259   1.484 -0.9948 -0.4803 -1.0047
  854SOL    HW2 2382   0.118   3.410   1.545  1.3985 -0.8141  0.2566
  855SOL     OW 2383   1.110   2.560   1.953  0.4735  0.1265  0.5115
  855SOL    HW1 2384   1.029   2.520   1.911  0.1761  0.5105  0.7110
  855SOL    HW2 2385   1.093   2.656   1.974  1.7575  0.8517 -1.4865
  856SOL     OW 2386   0.107   1.264   1.153  0.3985 -0.1069 -0.1840
  856SOL    HW1 2387   0.118   1.362   1.169 -0.7864  0.0554 -0.2223
  856SOL    HW2 2388   0.189   1.228   1.110  1.1405  0.7142  0.5058
  857SOL     OW 2389   2.155   3.767   1.128  0.2621  0.0496 -0.4235
  857SOL    HW1 2390   2.225   3.749   1.059  1.9992 -0.0888  1.2677
  857SOL    HW2 2391   2.101   3.846   1.101  3.0578  2.1012 -0.4590
  858SOL     OW 2392   1.115   2.763   2.221 -0.0804  0.4035 -0.1462
  858SOL    HW1 2393   1.096   2.819   2.302  0.4236  1.9276 -1.0321
  858SOL    HW2 2394   1.214   2.753   2.211  0.0028  2.2441 -1.8218
  859SOL     OW 2395   0.457   3.538   0.645 -0.0184 -0.1584 -0.2236
  859SOL    HW1 2396   0.551   3.506   0.633  0.5847  1.0364  1.0718
  859SOL    HW2 2397   0.446   3.627   0.601 -0.6786 -0.4716 -0.7192
  860SOL     OW 2398   0.814   3.794   2.571 -0.5444  0.2895  0.5989
  860SOL    HW1 2399   0.778   3.832   2.486  0.7615  0.8964  0.2897
  860SOL    HW2 2400   0.902   3.750   2.553 -0.1553  0.6107  1.6804
  861SOL     OW 2401   1.021   1.424   4.783  0.2483 -0.4629  0.0440
  861SOL    HW1 2402   0.961   1.410   4.705 -0.2980 -0.2692  0.4212
  861SOL    HW2 2403   1.106   1.372   4.770  0.7860  0.6986 -1.3324
  862SOL     OW 2404   1.205   0.701   0.603 -0.6859 -0.0873 -0.0668
  862SOL    HW1 2405   1.226   0.674   0.697 -1.1807  3.2093  1.1220
  862SOL    HW2 2406   1.109   0.727   0.597 -0.1589  1.7622 -0.9261
  863SOL     OW 2407   1.078   2.697   0.405 -0.2675 -0.3523  0.4280
  863SOL    HW1 2408   0.995   2.740   0.370  1.6987  3.7849  0.2748
  863SOL    HW2 2409   1.157   2.728   0.352  1.6480 -2.9044  1.5456
  864SOL     OW 2410   0.502   3.862   2.660  0.1009  0.2456 -0.0089
  864SOL    HW1 2411   0.521   3.767   2.636  0.6456  0.2317  0.4488
  864SOL    HW2 2412   0.587   3.906   2.692  0.2664  1.3922 -1.8901
  865SOL     OW 2413   4.843   1.993   0.452  0.2559 -0.1919  0.0384
  865SOL    HW1 2414   4.808   2.028   0.365 -0.7762  0.6187  0.7579
  865SOL    HW2 2415   4.943   1.996   0.451  0.2598 -0.1365 -1.0855
  866SOL     OW 2416   0.493   2.116   1.778  0.1357  0.1324 -0.3128
  866SOL    HW1 2417   0.566   2.183   1.763  0.2364 -0.2330 -1.6388
  866SOL    HW2 2418   0.496   2.082   1.872  0.1984  1.8343  0.3360
  867SOL     OW 2419   0.913   3.052   4.311  0.6848 -0.5651  0.0119
  867SOL    HW1 2420   1.011   3.067   4.291  0.5840  1.2122  0.6384
  867SOL    HW2 2421   0.903   3.016   4.403  0.7247  0.0551  0.2645
  868SOL     OW 2422   2.323   3.314   1.623 -0.1975 -0.0817 -0.5362
  868SOL    HW1 2423   2.286   3.297   1.531  0.7901 -0.3593 -0.8959
  868SOL    HW2 2424   2.306   3.410   1.648  0.0429  0.1599 -1.2625
  869SOL     OW 2425   1.334   1.459   5.084  0.1901  0.0846 -0.0074
  869SOL    HW1 2426   1.326   1.363   5.058  0.8369 -0.2939  1.1315
  869SOL    HW2 2427   1.246   1.504   5.072 -0.5537 -1.0499  0.9815
  870SOL     OW 2428   0.637   3.379   1.040  0.2064  0.0861  0.0018
  870SOL    HW1 2429   0.671   3.457   0.989  0.1339 -0.6890 -1.2729
  870SOL    HW2 2430   0.704   3.305   1.038 -0.1641 -0.2708  0.2941
  871SOL     OW 2431   1.420   3.361   0.211  0.0016  0.5965  0.6728
  871SOL    HW1 2432   1.392   3.295   0.141  1.2546  0.5530  0.1719
  871SOL    HW2 2433   1.469   3.312   0.284 -0.4585  0.7679  1.0954
  872SOL     OW 2434   1.916   2.105   0.839 -0.2630 -0.3374 -0.1675
  872SOL    HW1 2435   1.835   2.115   0.896 -1.0251  1.7224 -1.5101
  872SOL    HW2 2436   1.926   2.186   0.781  2.1977 -0.9934 -0.7635
  873SOL     OW 2437   0.021   2.021   0.539  0.1678  0.2955 -0.3850
  873SOL    HW1 2438   0.120   2.029   0.523  0.2395  0.5876  0.1632
  873SOL    HW2 2439   0.003   1.939   0.592  0.5416  2.0294  2.6598
  874SOL     OW 2440   0.848   3.911   4.494  0.7331 -0.1454  0.2239
  874SOL    HW1 2441   0.884   3.817   4.491  1.0656 -0.0879  1.6926
  874SOL    HW2 2442   0.756   3.909   4.534  0.1162  0.0115 -1.1201
  875SOL     OW 2443   0.152   1.995   0.893  0.1250 -0.5993  0.0285
  875SOL    HW1 2444   0.110   1.912   0.856  0.4917  0.5145 -3.1585
  875SOL    HW2 2445   0.251   1.983   0.898  0.4032  0.2026 -2.3235
  876SOL     OW 2446   1.665   4.163   0.948  0.5483  0.6156  0.8939
  876SOL    HW1 2447   1.597   4.162   1.022  0.8448  0.1453  1.1698
  876SOL    HW2 2448   1.636   4.101   0.875 -0.4599  2.1590 -0.0651
  877SOL     OW 2449   0.509   3.063   4.845  0.3675  0.8590  0.3681
  877SOL    HW1 2450   0.485   3.113   4.762  1.4993  0.5884 -0.1446
  877SOL    HW2 2451   0.527   2.967   4.822  0.4088  0.7166  0.9748
  878SOL     OW 2452   4.420   0.694   0.603 -0.5565  0.2883 -0.0340
  878SOL    HW1 2453   4.372   0.780   0.591 -0.4690  0.2943 -0.3641
  878SOL    HW2 2454   4.473   0.673   0.520 -0.3229  0.0773  0.1650
  879SOL     OW 2455   0.719   4.224   1.108  0.3438 -0.3579 -0.2529
  879SOL    HW1 2456   0.647   4.188   1.050 -0.5058  1.0894 -0.1413
  879SOL    HW2 2457   0.786   4.272   1.052  0.7984 -0.9983 -0.2689
  880SOL     OW 2458   1.581   1.934   2.051 -0.3027  0.3598  0.0503
  880SOL    HW1 2459   1.508   1.954   1.986 -0.0543  2.0226  0.2531
  880SOL    HW2 2460   1.620   1.844   2.030 -1.0612  0.3225 -1.3037
  881SOL     OW 2461   1.234   3.517   0.357 -0.1722  0.0386 -0.1492
  881SOL    HW1 2462   1.261   3.530   0.453 -0.3180 -0.2276 -0.0729
  881SOL    HW2 2463   1.306   3.466   0.309 -0.1938 -0.0055 -0.1339
  882SOL     OW 2464   4.945   0.448   0.266 -0.4096  0.0239 -0.3343
  882SOL    HW1 2465   4.925   0.544   0.285 -0.5389  0.1070 -0.8789
  882SOL    HW2 2466   4.868   0.406   0.219 -0.3662 -0.3567 -0.0683
  883SOL     OW 2467   0.777   2.266   1.412 -0.0021 -0.5037  1.0296
  883SOL    HW1 2468   0.689   2.259   1.365  0.0708  0.0889  0.7904
  883SOL    HW2 2469   0.850   2.244   1.348  0.0126 -1.2933  1.3093
  884SOL     OW 2470   4.268   2.479   5.000 -0.3686  0.5863  0.2357
  884SOL    HW1 2471   4.272   2.399   5.060 -0.4814  0.2008 -0.2619
  884SOL    HW2 2472   4.298   2.560   5.050  1.1982 -0.0098  0.3221
  885SOL     OW 2473   0.836   2.715   0.766  0.3448  0.3731 -0.1017
  885SOL    HW1 2474   0.738   2.713   0.749  0.2662 -0.7964  0.4345
  885SOL    HW2 2475   0.882   2.654   0.701  0.6044  0.1079  0.3269
  886SOL     OW 2476   1.251   1.687   0.247 -0.1717 -0.5577 -0.5320
  886SOL    HW1 2477   1.168   1.633   0.234 -0.2833 -0.3794 -0.5672
  886SOL    HW2 2478   1.292   1.707   0.158 -2.0724  2.4467 -0.9080
  887SOL     OW 2479   0.521   3.809   0.630  0.1926 -0.0675 -0.2162
  887SOL    HW1 2480   0.574   3.841   0.551 -0.6924 -1.3955 -1.3870
  887SOL    HW2 2481   0.424   3.825   0.615  0.1642  3.0960  2.2641
  888SOL     OW 2482   0.917   3.039   1.281 -0.0300 -0.5349 -0.0707
  888SOL    HW1 2483   0.939   3.008   1.373 -0.9131  0.1708  0.3988
  888SOL    HW2 2484   0.823   3.012   1.258  0.2397 -0.8604 -0.8371
  889SOL     OW 2485   0.605   4.222   0.680 -0.0199 -0.4067  0.2648
  889SOL    HW1 2486   0.693   4.268   0.668  0.8439 -1.7170  1.2385
  889SOL    HW2 2487   0.602   4.139   0.626 -0.9296 -0.0660 -0.2396
  890SOL     OW 2488   0.377   2.702   1.412  0.2046  0.1125  0.7239
  890SOL    HW1 2489   0.352   2.739   1.323  0.5443  2.1707  1.4388
  890SOL    HW2 2490   0.443   2.762   1.457  0.2703 -1.0180  2.2575
  891SOL     OW 2491   0.731   3.608   0.233 -0.1734  0.9332  0.0249
  891SOL    HW1 2492   0.704   3.698   0.269  0.6106  1.1794  0.0106
  891SOL    HW2 2493   0.822   3.584   0.267  0.9294  1.5113 -2.3452
  892SOL     OW 2494   0.698   3.704   1.526 -0.0640 -0.7008 -0.4417
  892SOL    HW1 2495   0.602   3.714   1.500 -0.0686  0.4203 -0.0289
  892SOL    HW2 2496   0.745   3.792   1.517  0.2052 -0.4892  2.2127
  893SOL     OW 2497   0.403   3.292   0.783  0.3115  0.3165  0.0826
  893SOL    HW1 2498   0.452   3.376   0.759 -1.2951  1.1842 -0.3089
  893SOL    HW2 2499   0.320   3.285   0.728 -0.4436 -0.6920  1.2875
  894SOL     OW 2500   0.334   2.448   1.324  0.5375 -0.0521 -0.6037
  894SOL    HW1 2501   0.338   2.446   1.224  0.1517  1.1659 -0.6560
  894SOL    HW2 2502   0.339   2.542   1.356  0.6921 -0.4318  0.5368
  895SOL     OW 2503   0.798   2.643   1.054  0.1022  1.0103 -0.5866
  895SOL    HW1 2504   0.819   2.633   1.151  1.5883  2.0859 -0.7635
  895SOL    HW2 2505   0.773   2.738   1.035  1.7195  1.2843 -1.5498
  896SOL     OW 2506   2.407   1.841   2.248 -0.2668 -0.0697  0.1774
  896SOL    HW1 2507   2.318   1.887   2.241 -0.2657  0.0886  1.0412
  896SOL    HW2 2508   2.479   1.901   2.213 -0.4302  0.0453  0.0367
  897SOL     OW 2509   1.661   2.545   0.710  0.4533  0.1500 -0.0336
  897SOL    HW1 2510   1.616   2.470   0.662 -0.3586 -0.4243  1.5586
  897SOL    HW2 2511   1.610   2.630   0.694 -0.5222 -0.2671  0.7634
  898SOL     OW 2512   0.508   2.413   4.730  0.0746  0.1726  0.0251
  898SOL    HW1 2513   0.607   2.400   4.743  0.3926  1.3144 -1.0950
  898SOL    HW2 2514   0.472   2.467   4.806  0.5093  0.5983 -0.0611
  899SOL     OW 2515   1.058   4.760   1.480  0.2179 -0.4340 -0.1079
  899SOL    HW1 2516   0.990   4.742   1.552  0.7911 -0.9378  0.3134
  899SOL    HW2 2517   1.034   4.707   1.399 -0.6844  0.4761 -0.4693
  900SOL     OW 2518   0.932   2.473   0.877 -0.2536 -0.7133 -0.4832
  900SOL    HW1 2519   0.873   2.541   0.923  0.3908 -0.9092  0.6723
  900SOL    HW2 2520   0.950   2.503   0.783 -0.1177  0.6339 -0.0503
  901SOL     OW 2521   4.975   1.408   3.824 -0.1028 -0.5369 -0.6475
  901SOL    HW1 2522   5.034   1.371   3.896 -2.1630 -0.2760  1.3241
  901SOL    HW2 2523   4.937   1.333   3.770 -0.7237 -1.0191  0.4090
  902SOL     OW 2524   0.920   3.602   0.614  0.3317  0.0698  0.5832
  902SOL    HW1 2525   0.900   3.697   0.592  0.9457  0.0023 -0.2861
  902SOL    HW2 2526   0.957   3.555   0.534 -0.4316 -1.0408  0.8435
  903SOL     OW 2527   0.165   4.143   2.348  0.3034 -0.5300 -0.3497
  903SOL    HW1 2528   0.083   4.101   2.309 -0.2637 -0.8549  1.1173
  903SOL    HW2 2529   0.206   4.080   2.414  1.0765  0.0976 -0.2174
  904SOL     OW 2530   0.957   2.641   0.098  0.3267 -0.0642  0.0815
  904SOL    HW1 2531   0.970   2.739   0.112 -1.6249  0.0751  1.3910
  904SOL    HW2 2532   1.018   2.609   0.026  1.1741  2.0520 -0.2219
  905SOL     OW 2533   0.629   3.780   1.192  0.2378 -0.3419 -0.2532
  905SOL    HW1 2534   0.663   3.775   1.098 -1.0093  1.8983 -0.8898
  905SOL    HW2 2535   0.634   3.875   1.224 -0.9329 -0.7842  1.3455
  906SOL     OW 2536   1.572   2.375   1.661 -0.1906 -0.2926  0.3695
  906SOL    HW1 2537   1.533   2.291   1.623 -0.1923 -0.1265  0.0023
  906SOL    HW2 2538   1.657   2.397   1.614 -2.1050  2.0442 -2.3505
  907SOL     OW 2539   4.390   1.419   1.565 -0.6127 -0.5238 -0.0228
  907SOL    HW1 2540   4.441   1.335   1.545  1.6021  0.7398  0.0929
  907SOL    HW2 2541   4.352   1.414   1.657  1.3789 -0.5426  0.8362
  908SOL     OW 2542   1.110   3.361   1.420  0.1255  0.0033 -0.1620
  908SOL    HW1 2543   1.162   3.332   1.339 -0.8950  0.5768 -1.0602
  908SOL    HW2 2544   1.027   3.408   1.390 -0.1587  0.4285  1.2429
  909SOL     OW 2545   4.833   2.316   1.534  0.2787 -0.0575  0.3345
  909SOL    HW1 2546   4.925   2.282   1.555  0.6578  0.8022  0.1173
  909SOL    HW2 2547   4.780   2.323   1.618  1.4195  2.2973  0.9380
  910SOL     OW 2548   0.042   4.281   4.436  0.6619 -0.3291 -0.0094
  910SOL    HW1 2549   0.122   4.335   4.462  0.4808 -0.9048  1.9270
  910SOL    HW2 2550  -0.015   4.264   4.517 -0.5538 -1.3471 -1.0265
  911SOL     OW 2551   1.808   1.701   0.559  0.0908  0.2027  0.1183
  911SOL    HW1 2552   1.745   1.770   0.525 -0.5270 -0.1124  0.6133
  911SOL    HW2 2553   1.871   1.742   0.625  1.0627  0.7369 -1.0959
  912SOL     OW 2554   0.659   1.129   1.414 -0.2158 -0.0276 -0.0033
  912SOL    HW1 2555   0.695   1.037   1.402 -0.4929 -0.4883  2.2541
  912SOL    HW2 2556   0.730   1.188   1.453 -1.1757 -0.4514  2.6305
  913SOL     OW 2557   1.643   2.894   4.992  0.4712  0.4810 -0.5008
  913SOL    HW1 2558   1.660   2.812   4.937  0.1589 -0.2142  0.4090
  913SOL    HW2 2559   1.730   2.924   5.032  0.3343 -0.4712  0.5848
  914SOL     OW 2560   0.996   3.679   1.327  0.6078  0.0632  0.3685
  914SOL    HW1 2561   0.949   3.595   1.351 -0.2997  0.0817 -1.2425
  914SOL    HW2 2562   0.946   3.757   1.365 -0.1580  0.0227 -0.5148
  915SOL     OW 2563   1.162   1.648   4.086 -0.7966 -0.1725 -0.3677
  915SOL    HW1 2564   1.085   1.595   4.050 -0.5556 -1.4176  0.8527
  915SOL    HW2 2565   1.136   1.689   4.173 -0.5642  0.6942 -0.6987
  916SOL     OW 2566   0.556   1.542   0.790 -0.3516 -0.4531 -0.0461
  916SOL    HW1 2567   0.575   1.449   0.757 -1.1130 -0.8376  0.5655
  916SOL    HW2 2568   0.642   1.592   0.798  0.4090 -1.8981  1.9002
  917SOL     OW 2569   1.904   1.612   0.916 -0.2319  0.5487 -0.1280
  917SOL    HW1 2570   1.948   1.692   0.876 -0.6730  0.6209 -0.4805
  917SOL    HW2 2571   1.812   1.601   0.877 -0.4162  0.2354  0.3842
  918SOL     OW 2572   1.033   4.093   0.000 -0.1144  0.5700 -0.5092
  918SOL    HW1 2573   1.116   4.046   0.027 -1.4409 -1.0876  0.9408
  918SOL    HW2 2574   1.056   4.186  -0.031  2.0410  1.2307  2.5370
  919SOL     OW 2575   0.944   3.343   4.073 -0.0319 -0.4952 -0.1832
  919SOL    HW1 2576   0.913   3.412   4.008  1.1331  0.1783 -0.0438
  919SOL    HW2 2577   1.043   3.330   4.064  0.3839  0.4784  2.2306
  920SOL     OW 2578   0.164   2.143   4.922 -0.2213  0.1550  0.1544
  920SOL    HW1 2579   0.101   2.128   4.998 -0.1541 -0.3237  0.1208
  920SOL    HW2 2580   0.160   2.065   4.859 -0.5023  0.6884 -0.4967
  921SOL     OW 2581   1.309   2.341   4.520 -0.6486  0.6365  0.0798
  921SOL    HW1 2582   1.361   2.421   4.550 -1.6684  0.3227  3.0129
  921SOL    HW2 2583   1.215   2.348   4.553  0.0547 -3.3145  3.8499
  922SOL     OW 2584   4.188   3.194   2.536 -0.1110 -0.2005 -0.3128
  922SOL    HW1 2585   4.227   3.155   2.620  0.2703 -1.7505 -1.1672
  922SOL    HW2 2586   4.090   3.208   2.549 -0.0901 -0.6023  0.3494
  923SOL     OW 2587   5.076   2.445   1.627  0.6483 -0.0664 -0.2602
  923SOL    HW1 2588   5.049   2.506   1.552 -0.2544 -0.1369  0.0013
  923SOL    HW2 2589   5.031   2.473   1.711  1.6729  0.0245  0.2812
  924SOL     OW 2590   1.117   3.669   2.648  0.1924 -0.2092 -0.5447
  924SOL    HW1 2591   1.116   3.657   2.549 -1.4499 -1.4297 -0.4211
  924SOL    HW2 2592   1.054   3.604   2.690  3.0303 -1.7946  1.5533
  925SOL     OW 2593   1.421   1.903   1.824  0.3884  0.0107  0.4746
  925SOL    HW1 2594   1.459   1.841   1.755 -0.5507 -1.4194  1.1812
  925SOL    HW2 2595   1.354   1.963   1.781  2.4275  1.7181 -0.5383
  926SOL     OW 2596   0.330   3.055   2.897 -0.0005  0.0109  0.1188
  926SOL    HW1 2597   0.302   2.972   2.851 -1.1276 -0.1432  1.0198
  926SOL    HW2 2598   0.359   3.123   2.830  1.0284 -1.1188 -0.6182
  927SOL     OW 2599   4.114   3.222   3.330  0.1356 -0.2972  0.1574
  927SOL    HW1 2600   4.139   3.222   3.234  1.5366 -1.0538  0.4858
  927SOL    HW2 2601   4.059   3.141   3.350 -1.3300  0.5608 -0.2519
  928SOL     OW 2602   0.750   2.528   1.445 -0.0379  0.1694  0.5582
  928SOL    HW1 2603   0.682   2.537   1.517 -2.0906  1.4162 -1.3900
  928SOL    HW2 2604   0.770   2.431   1.429  0.2772 -0.1296  2.5484
  929SOL     OW 2605   0.611   3.341   3.675 -0.5595  0.0510 -0.1789
  929SOL    HW1 2606   0.602   3.255   3.726 -0.8798  1.0375  1.5204
  929SOL    HW2 2607   0.546   3.342   3.600  1.4028 -2.3714 -2.1074
  930SOL     OW 2608   5.021   4.062   3.457  0.3145  0.2921 -0.3200
  930SOL    HW1 2609   4.992   4.153   3.430  1.0353  0.9508  1.0404
  930SOL    HW2 2610   5.121   4.059   3.462  0.2478 -0.0645  1.2861
  931SOL     OW 2611   2.021   2.957   3.488 -0.4079 -0.0013 -0.1180
  931SOL    HW1 2612   2.023   3.053   3.461  0.4492 -0.2841 -1.1216
  931SOL    HW2 2613   1.940   2.913   3.448 -0.8727  0.3306  0.4534
  932SOL     OW 2614   1.855   2.740   3.373 -0.1839 -0.0613  0.3805
  932SOL    HW1 2615   1.822   2.726   3.280  0.1265 -1.4138  0.4554
  932SOL    HW2 2616   1.777   2.758   3.433 -0.5149 -0.4236  0.0683
  933SOL     OW 2617   0.564   3.598   2.575  0.2496  0.1079  0.0229
  933SOL    HW1 2618   0.618   3.567   2.653  1.0179 -0.8878 -0.8862
  933SOL    HW2 2619   0.621   3.603   2.493 -1.0663 -1.3000 -1.0431
  934SOL     OW 2620   1.594   3.000   4.210 -0.5823 -0.3141 -0.2829
  934SOL    HW1 2621   1.692   3.009   4.229 -0.8335  0.5376  0.6578
  934SOL    HW2 2622   1.553   2.937   4.277 -0.8547  0.0745 -0.0846
  935SOL     OW 2623   0.411   4.838   1.166  0.0720 -0.3608  0.4776
  935SOL    HW1 2624   0.451   4.767   1.107  0.8796 -0.2639  0.8981
  935SOL    HW2 2625   0.313   4.844   1.148  0.3076 -0.2840 -0.9169
  936SOL     OW 2626   0.732   0.520   2.902 -0.2922  0.2607  0.0802
  936SOL    HW1 2627   0.640   0.557   2.914 -0.5552 -0.5522  0.6878
  936SOL    HW2 2628   0.792   0.556   2.974 -0.0484  1.0247 -0.4919
  937SOL     OW 2629   5.040   3.654   4.018 -0.6522  0.2092 -0.7649
  937SOL    HW1 2630   5.128   3.683   4.057 -0.3876 -1.1867 -0.2790
  937SOL    HW2 2631   5.050   3.644   3.919 -0.2380 -0.0287 -0.7021
  938SOL     OW 2632   4.553   2.562   2.491 -0.3015  0.1399 -0.2589
  938SOL    HW1 2633   4.488   2.510   2.546  0.2828 -0.0007  0.3168
  938SOL    HW2 2634   4.623   2.601   2.551  0.9782 -0.9332 -1.0041
  939SOL     OW 2635   2.133   1.434   3.559  0.2502  0.4120 -0.2788
  939SOL    HW1 2636   2.123   1.533   3.570 -0.7741  0.4475 -1.2901
  939SOL    HW2 2637   2.198   1.415   3.485  1.8456  0.2838  1.1185
  940SOL     OW 2638   4.931   3.456   2.706  0.9266  0.1796 -0.2392
  940SOL    HW1 2639   4.914   3.358   2.696 -0.2036  0.4458 -1.2222
  940SOL    HW2 2640   4.975   3.474   2.794  1.5214 -1.2447 -0.2214
  941SOL     OW 2641   1.199   4.016   2.431 -0.5762  0.3672 -0.1956
  941SOL    HW1 2642   1.110   4.021   2.387 -1.2038 -2.0937  0.6112
  941SOL    HW2 2643   1.266   3.982   2.364 -1.3675 -2.6171  0.3699
  942SOL     OW 2644   5.015   4.082   2.206  0.3826 -0.0279 -0.0207
  942SOL    HW1 2645   5.002   4.170   2.160  0.0681 -0.0807 -0.0346
  942SOL    HW2 2646   4.928   4.032   2.208  0.5671 -0.3541 -0.0466
  943SOL     OW 2647   1.430   2.968   2.320 -0.0111 -0.3518 -0.8241
  943SOL    HW1 2648   1.478   2.900   2.265  0.1024 -1.3469  0.4628
  943SOL    HW2 2649   1.426   3.055   2.270  3.5165 -0.0465 -0.8520
  944SOL     OW 2650   0.279   3.245   1.878 -0.3330 -0.4448  0.0094
  944SOL    HW1 2651   0.331   3.321   1.840  0.4704 -0.8321  0.3183
  944SOL    HW2 2652   0.211   3.280   1.943 -0.1312  0.0229 -0.0307
  945SOL     OW 2653   1.051   3.660   2.379 -0.0677  0.8927  0.2418
  945SOL    HW1 2654   1.034   3.562   2.374 -1.4565  1.1400 -0.1495
  945SOL    HW2 2655   1.111   3.687   2.303 -0.2661  0.4678 -0.0650
  946SOL     OW 2656   2.304   3.433   3.118 -0.1082 -0.2496  0.0181
  946SOL    HW1 2657   2.206   3.419   3.110 -0.2484  0.4421  0.5013
  946SOL    HW2 2658   2.352   3.364   3.064 -0.8417 -1.0163  0.3309
  947SOL     OW 2659   0.626   1.961   1.306  0.0497 -0.3995  0.0782
  947SOL    HW1 2660   0.596   2.056   1.293 -1.3719 -0.9413 -0.9045
  947SOL    HW2 2661   0.676   1.953   1.392  0.7641  1.3632 -0.1384
  948SOL     OW 2662   0.741   3.961   2.784 -0.1393 -0.3353 -0.0647
  948SOL    HW1 2663   0.778   3.902   2.712  2.1004 -0.4345  1.0466
  948SOL    HW2 2664   0.805   3.961   2.862 -0.4868  2.8370  0.3562
  949SOL     OW 2665   1.547   2.465   1.907 -0.2427 -0.3439  0.0623
  949SOL    HW1 2666   1.585   2.385   1.954 -0.8076  0.6071  2.2397
  949SOL    HW2 2667   1.526   2.440   1.812  1.2947 -2.2330  0.1420
  950SOL     OW 2668   3.073   3.429   0.207  0.4675  0.0673  0.3298
  950SOL    HW1 2669   3.009   3.502   0.183  1.8823  1.5409  0.8314
  950SOL    HW2 2670   3.088   3.429   0.306 -0.2204 -1.5614  0.4704
  951SOL     OW 2671   4.844   1.683   3.880 -0.1275 -0.1142  0.2957
  951SOL    HW1 2672   4.889   1.599   3.850  0.6323 -0.1172  1.4013
  951SOL    HW2 2673   4.802   1.728   3.801 -0.0066 -1.1992 -0.4103
  952SOL     OW 2674   0.758   3.185   2.643 -0.4357  0.0236 -0.1895
  952SOL    HW1 2675   0.730   3.108   2.586 -0.6128  1.3077 -1.9110
  952SOL    HW2 2676   0.757   3.269   2.589 -0.4690  1.2949  1.6872
  953SOL     OW 2677   3.658   4.352   1.811 -0.1331  0.3328 -0.2483
  953SOL    HW1 2678   3.754   4.376   1.829  0.0823 -0.6308 -0.0477
  953SOL    HW2 2679   3.649   4.252   1.807 -1.3269  0.3750  0.7875
  954SOL     OW 2680   0.548   4.079   1.538  0.1481  0.5159  0.2737
  954SOL    HW1 2681   0.502   3.993   1.561 -1.6415  1.3906  0.1379
  954SOL    HW2 2682   0.608   4.106   1.613 -1.3670  0.5179  1.5277
  955SOL     OW 2683   0.711   1.951   2.210  0.4786 -0.3395  0.9292
  955SOL    HW1 2684   0.784   2.018   2.201  0.1307  0.0041  0.6082
  955SOL    HW2 2685   0.642   1.967   2.138 -1.0099  0.7469  2.5166
  956SOL     OW 2686   2.081   3.165   3.035 -0.0163 -0.3273 -0.5544
  956SOL    HW1 2687   1.999   3.214   3.064  0.6682 -0.1754  1.3024
  956SOL    HW2 2688   2.062   3.067   3.029 -0.4452 -0.2433 -0.5595
  957SOL     OW 2689   1.035   2.058   2.439 -0.1113  1.1895  0.0673
  957SOL    HW1 2690   1.093   1.994   2.491 -2.2671 -1.2291 -0.2755
  957SOL    HW2 2691   0.959   2.088   2.497 -0.5546  1.3287 -0.5731
  958SOL     OW 2692   2.018   1.926   2.928 -0.5670 -0.1724 -0.3254
  958SOL    HW1 2693   2.071   1.859   2.876  0.4173  1.3379 -1.3668
  958SOL    HW2 2694   1.995   2.004   2.869 -1.9211  0.3054  0.7603
  959SOL     OW 2695   4.351   2.632   3.623  0.3572  0.0908  0.0059
  959SOL    HW1 2696   4.286   2.608   3.694 -1.3359 -0.1131 -1.5404
  959SOL    HW2 2697   4.404   2.712   3.651 -0.0134 -0.2016  1.6035
  960SOL     OW 2698   0.738   2.595   2.258 -0.4386  0.3193 -0.5303
  960SOL    HW1 2699   0.687   2.597   2.344 -2.2959 -1.5850 -1.5084
  960SOL    HW2 2700   0.813   2.530   2.265 -1.3520 -0.7804 -0.7053
  961SOL     OW 2701   0.448   2.499   1.979  0.0682  0.9052  0.1712
  961SOL    HW1 2702   0.361   2.485   1.930  0.8201  2.0518 -1.6158
  961SOL    HW2 2703   0.449   2.443   2.062 -2.4104  0.9493  0.3100
  962SOL     OW 2704   0.249   3.684   1.856  0.2342 -0.1843 -0.4629
  962SOL    HW1 2705   0.175   3.653   1.915  0.8898 -1.3122 -0.2062
  962SOL    HW2 2706   0.236   3.781   1.835 -0.1250  0.2032  1.3732
  963SOL     OW 2707   1.289   4.092   4.188  0.6047  0.2368 -0.9428
  963SOL    HW1 2708   1.279   4.000   4.151 -0.2825 -0.0770  0.0429
  963SOL    HW2 2709   1.383   4.123   4.175  1.1379 -1.1409 -0.5213
  964SOL     OW 2710   0.947   1.811   1.812 -0.4790 -0.4973  0.4496
  964SOL    HW1 2711   1.035   1.781   1.849  0.0781  0.2100 -0.2698
  964SOL    HW2 2712   0.925   1.758   1.730  0.1876  0.5581 -0.4395
  965SOL     OW 2713   0.589   2.801   3.531  0.6161 -0.1022 -0.0753
  965SOL    HW1 2714   0.620   2.725   3.588 -1.3171 -0.8438  0.0854
  965SOL    HW2 2715   0.638   2.884   3.556  0.7714 -0.6939  1.7528
  966SOL     OW 2716   1.229   2.804   1.047  0.0118 -0.0445  0.1587
  966SOL    HW1 2717   1.193   2.838   0.960  0.2192 -1.1380 -0.3677
  966SOL    HW2 2718   1.194   2.712   1.064  0.3533 -0.0285  1.0103
  967SOL     OW 2719   0.051   1.630   2.690  0.0299 -1.1307 -0.6430
  967SOL    HW1 2720   0.070   1.538   2.655 -2.8036 -2.7269  1.5702
  967SOL    HW2 2721   0.130   1.663   2.741  0.6615 -2.8857 -0.4040
  968SOL     OW 2722   0.852   3.471   1.442 -0.3553 -0.8383  0.1765
  968SOL    HW1 2723   0.796   3.553   1.444  0.7920 -0.0473  1.0098
  968SOL    HW2 2724   0.794   3.391   1.422 -1.5181  0.1180 -0.3933
  969SOL     OW 2725   0.404   3.282   2.782  0.4265  0.1708  0.0689
  969SOL    HW1 2726   0.363   3.367   2.814  1.5436  1.4617 -1.7288
  969SOL    HW2 2727   0.498   3.275   2.814 -0.1857 -1.3243  1.7030
  970SOL     OW 2728   1.236   3.839   4.080  0.7078  0.3593 -0.5056
  970SOL    HW1 2729   1.311   3.789   4.123 -0.2114 -0.2432  0.4436
  970SOL    HW2 2730   1.191   3.781   4.012 -1.3652 -0.8061  1.6989
  971SOL     OW 2731   0.669   2.660   2.015  0.0121  0.0491  0.2798
  971SOL    HW1 2732   0.572   2.636   2.025  0.1119 -0.1880  0.7253
  971SOL    HW2 2733   0.717   2.637   2.100  0.3057  0.8961  0.3514
  972SOL     OW 2734   0.405   2.682   3.117 -0.8095 -0.2922 -0.4532
  972SOL    HW1 2735   0.450   2.602   3.158  1.7269  0.7607 -0.9671
  972SOL    HW2 2736   0.402   2.670   3.018  2.6252  1.4794 -0.9360
  973SOL     OW 2737   2.865   4.494   3.046  0.1293 -0.3891  0.0413
  973SOL    HW1 2738   2.814   4.539   2.973  0.7781  1.1222  0.4671
  973SOL    HW2 2739   2.953   4.463   3.011 -0.4909 -1.7978 -0.3619
  974SOL     OW 2740   0.704   0.754   3.605  0.3304 -0.0554  0.1558
  974SOL    HW1 2741   0.671   0.798   3.688  0.0395 -0.4544  0.2497
  974SOL    HW2 2742   0.725   0.658   3.624  0.4120 -0.1071 -0.1924
  975SOL     OW 2743   0.691   2.980   2.488  0.6812 -0.0014  0.6946
  975SOL    HW1 2744   0.743   3.033   2.422 -0.1107  1.0949  0.9064
  975SOL    HW2 2745   0.609   2.943   2.444  1.8328 -2.1470  0.2293
  976SOL     OW 2746   4.877   2.891   2.916 -0.3730 -0.1950 -0.6701
  976SOL    HW1 2747   4.874   2.873   2.818 -1.4192 -0.3814 -0.6136
  976SOL    HW2 2748   4.850   2.986   2.933  0.0093 -0.1014 -0.5719
  977SOL     OW 2749   1.242   1.477   1.799 -0.2135  0.0137  0.2056
  977SOL    HW1 2750   1.193   1.427   1.870 -0.0603 -1.9716 -1.0300
  977SOL    HW2 2751   1.176   1.528   1.743 -0.5385 -0.0802  0.5010
  978SOL     OW 2752   0.240   4.434   3.536  0.3225  0.2340 -0.3932
  978SOL    HW1 2753   0.150   4.467   3.509 -0.0478 -0.1002  0.3998
  978SOL    HW2 2754   0.253   4.451   3.634  0.8056 -0.4232 -0.3410
  979SOL     OW 2755   0.776   3.383   2.452 -0.0311  0.4413 -0.0286
  979SOL    HW1 2756   0.709   3.382   2.378  0.7829  0.1145 -0.7731
  979SOL    HW2 2757   0.868   3.388   2.414  0.4029  0.2555  0.9647
  980SOL     OW 2758   0.667   3.105   2.105 -0.4774  0.0907  0.3963
  980SOL    HW1 2759   0.598   3.047   2.147  0.9152 -0.6972  1.6945
  980SOL    HW2 2760   0.671   3.088   2.007  1.4217 -3.8169  0.9713
  981SOL     OW 2761   1.509   1.570   2.984  0.2407 -0.5307  0.5513
  981SOL    HW1 2762   1.460   1.657   2.978 -0.3152 -0.8814 -0.1837
  981SOL    HW2 2763   1.599   1.580   2.941  0.0258 -0.4198  0.1206
  982SOL     OW 2764   0.148   1.660   2.029 -0.2470 -0.2510  0.3246
  982SOL    HW1 2765   0.142   1.708   1.941 -0.9355 -1.4573 -0.3061
  982SOL    HW2 2766   0.056   1.652   2.068 -0.2285 -1.4953  0.1573
  983SOL     OW 2767   1.677   2.343   3.194 -0.1582 -0.2829  0.6420
  983SOL    HW1 2768   1.772   2.373   3.188 -0.5029  0.5759 -2.1144
  983SOL    HW2 2769   1.669   2.248   3.166  0.1536 -1.2156  3.4578
  984SOL     OW 2770   0.379   2.730   2.369 -0.6611 -0.1149 -0.0087
  984SOL    HW1 2771   0.352   2.731   2.273  1.6885 -0.5542 -0.7337
  984SOL    HW2 2772   0.347   2.813   2.414 -0.8533  0.6192 -1.4578
  985SOL     OW 2773   1.474   1.198   2.811 -0.3810 -0.5916 -0.7209
  985SOL    HW1 2774   1.428   1.110   2.796 -2.2424  0.1423  0.3520
  985SOL    HW2 2775   1.418   1.254   2.871  1.3009  0.9372 -0.5300
  986SOL     OW 2776   4.554   2.617   3.160 -0.1332 -0.1200 -0.0943
  986SOL    HW1 2777   4.629   2.677   3.136 -1.3400  1.4954 -0.0036
  986SOL    HW2 2778   4.522   2.638   3.253 -0.3367 -1.1691  0.0941
  987SOL     OW 2779   1.795   1.439   1.480  0.4111  0.0299  0.2985
  987SOL    HW1 2780   1.860   1.444   1.405 -0.2629 -1.6226 -0.4384
  987SOL    HW2 2781   1.723   1.507   1.466  0.8384  0.4279  0.0056
  988SOL     OW 2782   0.987   2.332   2.802 -0.7276 -0.1538 -0.6116
  988SOL    HW1 2783   1.066   2.274   2.783 -0.6897 -0.2690 -0.1247
  988SOL    HW2 2784   0.957   2.317   2.897 -0.6989  0.6454 -0.4718
  989SOL     OW 2785   1.058   2.478   4.986  0.1181  0.0482  0.2148
  989SOL    HW1 2786   1.004   2.511   4.909  0.3469 -0.3629 -0.1281
  989SOL    HW2 2787   1.080   2.381   4.972  1.9505  0.5070 -0.2409
  990SOL     OW 2788   0.592   2.190   2.566 -0.2029  0.0454  0.4399
  990SOL    HW1 2789   0.585   2.103   2.517 -1.5763  0.5457 -0.3296
  990SOL    HW2 2790   0.568   2.265   2.503 -0.3307  0.8569  1.4312
  991SOL     OW 2791   1.462   2.099   1.112  0.0017 -0.1043 -0.2091
  991SOL    HW1 2792   1.415   2.135   1.031  1.0849  0.9446 -0.3965
  991SOL    HW2 2793   1.444   2.001   1.120 -1.5697  0.1114 -0.7028
  992SOL     OW 2794   1.042   2.855   4.841 -0.3073  0.4812  0.0578
  992SOL    HW1 2795   1.116   2.878   4.905  1.0979 -0.8860 -0.9765
  992SOL    HW2 2796   1.037   2.756   4.831 -0.2630  0.6482 -2.1566
  993SOL     OW 2797   1.989   4.824   3.115  0.1261 -0.0022 -0.2516
  993SOL    HW1 2798   1.919   4.804   3.047  0.1555  1.5059 -0.7613
  993SOL    HW2 2799   1.992   4.923   3.133  1.9181 -0.0511 -0.0432
  994SOL     OW 2800   4.774   3.063   3.349 -0.2614 -0.0247  0.0073
  994SOL    HW1 2801   4.871   3.045   3.359 -0.0701  1.2235  0.6270
  994SOL    HW2 2802   4.760   3.159   3.323 -1.3688  0.3632  1.8241
  995SOL     OW 2803   2.530   4.452   2.996  0.3192  0.5106  0.0108
  995SOL    HW1 2804   2.538   4.427   2.899 -0.3818 -0.0835  0.0923
  995SOL    HW2 2805   2.433   4.465   3.019  0.5409  1.5159  0.4268
  996SOL     OW 2806   0.726   1.925   1.015  0.1846  0.7108  0.5155
  996SOL    HW1 2807   0.686   2.014   0.991 -1.2276  0.0739  0.3696
  996SOL    HW2 2808   0.701   1.903   1.110 -1.9348 -0.7495 -0.2971
  997SOL     OW 2809   4.509   3.045   3.312 -0.0229  0.5310  0.1139
  997SOL    HW1 2810   4.606   3.063   3.325 -0.1005  0.8342  0.2795
  997SOL    HW2 2811   4.455   3.104   3.372 -0.2708 -0.4327  0.8747
  998SOL     OW 2812   0.548   1.928   2.408 -0.2325 -0.2286  0.3066
  998SOL    HW1 2813   0.489   1.853   2.382 -1.6879  1.0425 -0.1941
  998SOL    HW2 2814   0.604   1.956   2.330 -0.4649 -0.1066  0.1833
  999SOL     OW 2815   4.973   3.145   2.063  0.2905  0.1931  0.4654
  999SOL    HW1 2816   4.993   3.069   2.002 -0.3902  0.2100  0.2209
  999SOL    HW2 2817   4.921   3.112   2.142  0.4938  0.3069  0.6495
 1000SOL     OW 2818   1.132   1.485   2.395  0.3511 -0.4975  0.0432
 1000SOL    HW1 2819   1.106   1.390   2.383  3.9404 -1.3603 -2.3391
 1000SOL    HW2 2820   1.131   1.532   2.307  3.6105  0.1216  0.2094
 1001SOL     OW 2821   0.913   2.390   2.332 -0.3016  0.0616  0.2853
 1001SOL    HW1 2822   0.901   2.411   2.429  0.2443 -2.1323  0.8894
 1001SOL    HW2 2823   1.001   2.427   2.300  0.3443 -0.7280  1.1186
 1002SOL     OW 2824   1.581   3.954   1.459 -0.1669  0.6910 -0.1377
 1002SOL    HW1 2825   1.536   3.929   1.545  0.6147  0.4611  0.2102
 1002SOL    HW2 2826   1.656   4.017   1.478 -0.9429  1.8640 -0.8162
 1003SOL     OW 2827   2.286   2.288   1.546  0.1194  0.3900  0.4560
 1003SOL    HW1 2828   2.218   2.360   1.531 -3.0563 -2.1736  1.2096
 1003SOL    HW2 2829   2.283   2.223   1.471 -1.5953 -2.0570  2.4593
 1004SOL     OW 2830   2.266   1.480   2.934  0.3875  0.6659  0.1612
 1004SOL    HW1 2831   2.310   1.524   3.013  2.0299  1.6576 -1.2276
 1004SOL    HW2 2832   2.322   1.495   2.853 -0.9597 -0.8298 -1.1030
 1005SOL     OW 2833   2.194   3.211   4.122  0.1337  0.1367  0.3112
 1005SOL    HW1 2834   2.206   3.112   4.124  2.2117  0.3484  0.2292
 1005SOL    HW2 2835   2.132   3.239   4.196  0.5183 -1.1090  1.1312
 1006SOL     OW 2836   1.670   2.966   3.153 -0.0866 -0.8572  0.8411
 1006SOL    HW1 2837   1.601   2.966   3.226  0.3539 -0.1472  1.2702
 1006SOL    HW2 2838   1.734   3.041   3.168  1.0412 -1.7648  0.6892
 1007SOL     OW 2839   1.987   3.891   2.720 -0.5632 -0.2344  0.0088
 1007SOL    HW1 2840   1.938   3.964   2.673 -1.3563 -0.4178  0.5135
 1007SOL    HW2 2841   1.932   3.859   2.798 -0.8653 -2.2754 -0.9713
 1008SOL     OW 2842   1.054   2.874   1.962 -0.3319  0.0694  0.6689
 1008SOL    HW1 2843   1.126   2.891   1.895  0.7360  0.8698  1.9877
 1008SOL    HW2 2844   1.094   2.834   2.045 -1.6966 -1.3692  0.6913
 1009SOL     OW 2845   1.423   2.963   2.600  0.3553  0.2022  0.4201
 1009SOL    HW1 2846   1.502   3.011   2.637 -0.7440  0.8060  2.0821
 1009SOL    HW2 2847   1.416   2.981   2.502  1.3121  1.5104  0.5689
 1010SOL     OW 2848   1.555   1.848   2.784  0.2381  0.3105 -0.7084
 1010SOL    HW1 2849   1.484   1.834   2.853 -0.0665  0.8097 -0.9152
 1010SOL    HW2 2850   1.641   1.873   2.829  0.3375 -0.4751 -0.4476
 1011SOL     OW 2851   0.849   2.085   3.649 -0.2426 -0.0643  0.2615
 1011SOL    HW1 2852   0.849   2.117   3.554  1.3094  1.0200  0.6008
 1011SOL    HW2 2853   0.841   2.162   3.711 -0.9773 -0.7462  1.0429
 1012SOL     OW 2854   1.228   3.179   3.058 -0.4744  0.5370  0.7597
 1012SOL    HW1 2855   1.182   3.141   3.138  0.0606 -1.1340  0.3104
 1012SOL    HW2 2856   1.308   3.231   3.087  1.9406 -3.1402  1.2699
 1013SOL     OW 2857   1.371   1.821   2.989 -0.2324 -0.1206  0.0071
 1013SOL    HW1 2858   1.413   1.898   3.037  0.3226  1.2029 -2.4395
 1013SOL    HW2 2859   1.271   1.829   2.995 -0.1747  0.2100  0.6115
 1014SOL     OW 2860   0.614   1.471   2.169  0.0843 -0.2318 -0.0421
 1014SOL    HW1 2861   0.642   1.409   2.242 -2.7365  0.6019  1.9104
 1014SOL    HW2 2862   0.695   1.502   2.118  1.9727 -2.1588  1.6205
 1015SOL     OW 2863   0.497   2.462   3.219 -0.5085  0.3304 -0.4681
 1015SOL    HW1 2864   0.596   2.450   3.220 -0.4649  0.6179  0.7871
 1015SOL    HW2 2865   0.452   2.375   3.196  0.0316  0.3786 -1.7936
 1016SOL     OW 2866   0.312   3.957   2.490 -0.2663  0.2898 -0.2832
 1016SOL    HW1 2867   0.222   3.919   2.506  0.3753 -1.2437 -0.1761
 1016SOL    HW2 2868   0.375   3.928   2.562  0.9077 -0.7680 -1.6587
 1017SOL     OW 2869   4.814   3.880   2.757 -0.1020 -0.0536 -0.2390
 1017SOL    HW1 2870   4.724   3.908   2.792 -0.1772 -0.5833 -0.0063
 1017SOL    HW2 2871   4.876   3.863   2.833  0.3774  0.8644 -0.4038
 1018SOL     OW 2872   0.316   3.455   2.155 -0.4908  0.1080 -0.4435
 1018SOL    HW1 2873   0.245   3.394   2.119  0.0382  0.0828 -1.4813
 1018SOL    HW2 2874   0.303   3.467   2.253 -2.4206  0.7482 -0.7431
 1019SOL     OW 2875   1.169   3.729   3.392 -0.5338  0.2666 -0.1549
 1019SOL    HW1 2876   1.112   3.797   3.439  0.5305  1.2221 -0.2123
 1019SOL    HW2 2877   1.171   3.750   3.294 -0.0024  0.3048 -0.1368
 1020SOL     OW 2878   1.710   2.732   2.311  0.2984  0.1641  0.3508
 1020SOL    HW1 2879   1.659   2.744   2.396 -0.8645 -0.1092 -0.2877
 1020SOL    HW2 2880   1.673   2.655   2.260  0.9901  0.3171 -0.4097
 1021SOL     OW 2881   0.143   3.207   2.682 -0.0032  0.1450  0.2387
 1021SOL    HW1 2882   0.080   3.228   2.756 -0.1666 -0.1700  0.1900
 1021SOL    HW2 2883   0.232   3.249   2.701 -0.7865  2.3576 -0.6734
 1022SOL     OW 2884   1.051   1.890   3.687 -0.6750 -0.1055 -0.6353
 1022SOL    HW1 2885   1.088   1.863   3.598 -0.2157  1.7269 -1.0481
 1022SOL    HW2 2886   0.975   1.953   3.674 -1.5034 -0.8727  0.2809
 1023SOL     OW 2887   2.181   2.469   3.816  0.0598  0.2997 -0.2880
 1023SOL    HW1 2888   2.173   2.434   3.722  0.5741 -0.8619  0.0738
 1023SOL    HW2 2889   2.237   2.552   3.816  0.7584 -0.1558 -0.9226
 1024SOL     OW 2890   1.229   2.375   3.964 -0.3366 -0.2128  0.1741
 1024SOL    HW1 2891   1.188   2.341   3.879 -1.7087  0.3066  0.5979
 1024SOL    HW2 2892   1.159   2.378   4.035 -0.5343  3.9521  0.0490
 1025SOL     OW 2893   0.718   1.646   2.870 -0.3164 -0.6515  0.1332
 1025SOL    HW1 2894   0.627   1.680   2.895 -0.0664 -0.6925  1.1649
 1025SOL    HW2 2895   0.774   1.721   2.837 -0.4822 -0.4750  0.2515
 1026SOL     OW 2896   0.333   2.094   3.355  0.3532  0.6425 -0.7813
 1026SOL    HW1 2897   0.284   2.179   3.340  0.1016  0.5151 -0.6879
 1026SOL    HW2 2898   0.295   2.046   3.435  0.3370  0.3293 -0.9740
 1027SOL     OW 2899   2.316   0.510   2.112 -0.5162 -0.4809 -0.1614
 1027SOL    HW1 2900   2.368   0.549   2.037 -0.4277 -1.0428 -0.4034
 1027SOL    HW2 2901   2.348   0.416   2.129 -1.2618 -0.7323 -0.1291
 1028SOL     OW 2902   0.600   2.060   3.307  0.4003  0.2071 -0.3492
 1028SOL    HW1 2903   0.504   2.055   3.334  0.4873  2.9706  0.8254
 1028SOL    HW2 2904   0.647   1.976   3.334 -1.7985 -1.5441 -1.6783
 1029SOL     OW 2905   4.350   3.244   2.801 -0.2722 -0.2638  0.0780
 1029SOL    HW1 2906   4.329   3.316   2.734 -0.8606 -0.7132 -0.2366
 1029SOL    HW2 2907   4.286   3.167   2.788  0.4132 -0.8888  0.3346
 1030SOL     OW 2908   0.363   1.533   1.904  0.5463 -0.1976  0.1455
 1030SOL    HW1 2909   0.293   1.577   1.961 -0.3899  0.1152 -1.2188
 1030SOL    HW2 2910   0.333   1.441   1.880  0.9582 -0.3414  0.1714
 1031SOL     OW 2911   1.696   3.552   2.907  0.1994  0.0527  0.5016
 1031SOL    HW1 2912   1.614   3.572   2.961  1.6844  0.0719  2.8460
 1031SOL    HW2 2913   1.670   3.544   2.810 -2.7395 -1.0866  1.2694
 1032SOL     OW 2914   4.258   1.827   2.502  0.0598  0.4188 -0.7300
 1032SOL    HW1 2915   4.269   1.752   2.567 -1.2173  1.2510  0.5298
 1032SOL    HW2 2916   4.215   1.793   2.418  0.3338 -0.4121 -0.5428
 1033SOL     OW 2917   2.172   1.937   1.156  0.3455  0.1337 -0.1836
 1033SOL    HW1 2918   2.191   1.842   1.132  0.4769  0.1459 -0.1322
 1033SOL    HW2 2919   2.175   1.994   1.074  1.3960  0.2725 -0.0676
 1034SOL     OW 2920   0.672   2.823   3.261 -0.0219 -0.4389  0.1166
 1034SOL    HW1 2921   0.595   2.856   3.206  1.0157  0.8618 -0.6199
 1034SOL    HW2 2922   0.640   2.800   3.353 -1.6681 -2.0420 -0.8023
 1035SOL     OW 2923   0.183   3.306   3.307 -0.3729  0.2729 -0.2134
 1035SOL    HW1 2924   0.103   3.348   3.262 -2.2339  0.6785  3.0865
 1035SOL    HW2 2925   0.158   3.216   3.342 -0.2052  1.2390  2.6924
 1036SOL     OW 2926   1.710   2.704   3.139 -0.0327  0.0790 -0.3527
 1036SOL    HW1 2927   1.694   2.802   3.151 -2.1174 -0.4232  1.7138
 1036SOL    HW2 2928   1.684   2.677   3.047 -2.5824  0.9698  0.0259
 1037SOL     OW 2929   0.004   3.031   2.540  0.5001  0.2092 -0.3021
 1037SOL    HW1 2930   0.032   3.035   2.444 -0.5310 -0.8420 -0.6822
 1037SOL    HW2 2931   0.052   3.101   2.592  0.9077  0.9583 -1.6278
 1038SOL     OW 2932   2.048   1.784   1.737  0.7778  0.1373  0.2147
 1038SOL    HW1 2933   2.144   1.767   1.760  0.3867 -0.1640  1.7226
 1038SOL    HW2 2934   1.992   1.776   1.820 -0.8691 -2.1159 -0.9952
 1039SOL     OW 2935   1.221   2.257   2.384  0.3595 -0.0365 -0.1962
 1039SOL    HW1 2936   1.144   2.194   2.390  1.6056 -1.5619  0.2953
 1039SOL    HW2 2937   1.192   2.340   2.336 -1.1258 -1.2844 -1.5770
 1040SOL     OW 2938   1.471   3.836   2.984  0.8833  0.2605 -0.3707
 1040SOL    HW1 2939   1.521   3.802   3.064  1.2482 -0.7853 -1.0155
 1040SOL    HW2 2940   1.536   3.863   2.913  0.5666  1.3721 -0.2583
 1041SOL     OW 2941   4.953   2.468   1.899 -0.2820 -0.3297 -0.0289
 1041SOL    HW1 2942   4.976   2.555   1.942 -1.5946  0.3515 -0.6547
 1041SOL    HW2 2943   4.977   2.393   1.960  1.2881  0.4243  0.3356
 1042SOL     OW 2944   1.434   2.159   2.865 -0.3564 -0.2464  0.5945
 1042SOL    HW1 2945   1.424   2.223   2.942  0.5137 -1.2770  1.5952
 1042SOL    HW2 2946   1.525   2.170   2.824 -0.4685 -0.3610  0.3103
 1043SOL     OW 2947   1.619   3.411   3.305  0.0217  0.5771 -0.1443
 1043SOL    HW1 2948   1.684   3.353   3.353 -1.4822 -0.0092  1.2531
 1043SOL    HW2 2949   1.594   3.489   3.362  0.4459  1.5102 -1.1822
 1044SOL     OW 2950   2.895   2.266   3.946 -0.2650  0.4891  0.0836
 1044SOL    HW1 2951   2.839   2.251   4.028 -1.3151  2.0684 -0.2902
 1044SOL    HW2 2952   2.835   2.269   3.866  0.3101  2.3233 -0.3197
 1045SOL     OW 2953   0.323   4.589   1.980 -0.1406  0.3577  0.0582
 1045SOL    HW1 2954   0.376   4.560   2.060  2.1750  0.0794 -1.4705
 1045SOL    HW2 2955   0.324   4.517   1.912 -1.4491  0.8738 -0.5291
 1046SOL     OW 2956   4.493   3.126   2.143  0.1100  0.2940 -0.1645
 1046SOL    HW1 2957   4.455   3.127   2.235  1.3761 -1.3633  0.4249
 1046SOL    HW2 2958   4.433   3.073   2.082 -0.2210  0.5433 -0.0546
 1047SOL     OW 2959   0.174   2.693   1.790  0.8510  0.2829  0.2291
 1047SOL    HW1 2960   0.236   2.764   1.823  3.0366 -1.5155  0.2897
 1047SOL    HW2 2961   0.148   2.712   1.695  0.2457  1.8346  0.6744
 1048SOL     OW 2962   1.443   2.170   2.238 -0.0664 -0.2342  0.1148
 1048SOL    HW1 2963   1.363   2.203   2.287 -1.1117 -0.3729 -1.3997
 1048SOL    HW2 2964   1.449   2.071   2.246 -0.1785 -0.2456  0.0634
 1049SOL     OW 2965   4.804   2.371   3.448  0.3138 -0.0310 -0.1449
 1049SOL    HW1 2966   4.851   2.457   3.429  2.1594 -0.8944  0.2665
 1049SOL    HW2 2967   4.750   2.343   3.368  0.4199  1.0287 -0.6030
 1050SOL     OW 2968   4.794   3.011   2.246  0.1558  0.2246  0.0078
 1050SOL    HW1 2969   4.802   2.937   2.312 -0.7561 -0.1892 -0.3338
 1050SOL    HW2 2970   4.749   2.978   2.163 -0.9511  1.3370  0.1449
 1051SOL     OW 2971   0.145   2.614   2.536  0.2258  0.0249  0.2803
 1051SOL    HW1 2972   0.177   2.643   2.626 -0.0719 -0.0769  0.4225
 1051SOL    HW2 2973   0.217   2.627   2.468 -0.0666  1.6508  0.2259
 1052SOL     OW 2974   1.160   2.478   2.233  0.0419 -0.4435  0.0259
 1052SOL    HW1 2975   1.235   2.468   2.167  0.3559 -1.1745  0.4781
 1052SOL    HW2 2976   1.124   2.571   2.229  0.9059 -0.1119 -0.2834
 1053SOL     OW 2977   1.641   0.841   2.667 -0.2339 -0.5750  0.1276
 1053SOL    HW1 2978   1.665   0.808   2.576 -0.3108  1.6765 -0.7595
 1053SOL    HW2 2979   1.552   0.886   2.665 -0.7330 -1.4165  1.5732
 1054SOL     OW 2980   1.310   2.746   1.402  0.2226 -0.2996 -0.4211
 1054SOL    HW1 2981   1.341   2.745   1.307  1.4068 -1.7708 -0.0477
 1054SOL    HW2 2982   1.317   2.654   1.441  1.6578  0.6311  1.6890
 1055SOL     OW 2983   0.252   1.688   2.848 -0.2429  0.1314  0.4944
 1055SOL    HW1 2984   0.306   1.628   2.790 -1.3342 -1.8225  1.4126
 1055SOL    HW2 2985   0.312   1.732   2.916  0.3455 -1.3784  0.9939
 1056SOL     OW 2986   2.094   4.679   3.504 -0.1566 -0.0341  0.0900
 1056SOL    HW1 2987   2.124   4.607   3.566  1.9784 -0.6842 -1.5820
 1056SOL    HW2 2988   2.089   4.765   3.554 -0.2914 -0.8655  1.5650
 1057SOL     OW 2989   0.893   2.482   2.592 -0.0363  0.1542  0.4234
 1057SOL    HW1 2990   0.858   2.569   2.627 -0.2321  0.1702  0.1851
 1057SOL    HW2 2991   0.943   2.435   2.665  0.2061  0.5367  0.5093
 1058SOL     OW 2992   5.000   3.053   3.664 -0.2111 -0.0110  0.2258
 1058SOL    HW1 2993   4.996   2.999   3.580  2.6337 -0.1738  0.1015
 1058SOL    HW2 2994   5.072   3.017   3.723  0.1536  2.1948  1.2286
 1059SOL     OW 2995   1.843   2.091   1.973  0.2964  0.4474  0.3502
 1059SOL    HW1 2996   1.852   2.004   2.021 -0.1280  0.0500 -0.2750
 1059SOL    HW2 2997   1.899   2.160   2.018 -0.5540  0.2471  1.7595
 1060SOL     OW 2998   2.348   3.591   3.337  0.2463 -0.2054  0.2633
 1060SOL    HW1 2999   2.280   3.664   3.345  1.7778  1.2301  0.8918
 1060SOL    HW2 3000   2.337   3.544   3.250 -0.3537  1.2583 -0.4814
 1061SOL     OW 3001   2.826   3.526   2.925  0.9392  0.1510 -0.0137
 1061SOL    HW1 3002   2.859   3.549   2.834  1.5509  1.4244  0.5104
 1061SOL    HW2 3003   2.890   3.462   2.969  0.5224 -0.6467 -0.5444
 1062SOL     OW 3004   4.772   3.151   2.929 -0.0993 -0.2562 -0.4049
 1062SOL    HW1 3005   4.690   3.204   2.950  0.7783  1.7625 -1.7532
 1062SOL    HW2 3006   4.785   3.147   2.830  1.2648 -0.7841 -0.2282
 1063SOL     OW 3007   0.424   2.132   3.964 -0.7021 -0.5899  0.0855
 1063SOL    HW1 3008   0.339   2.121   4.017 -2.3188 -1.8440 -2.5813
 1063SOL    HW2 3009   0.502   2.125   4.026 -2.4684 -0.8639  2.4491
 1064SOL     OW 3010   1.878   1.342   2.310  0.5592  0.0472  0.4654
 1064SOL    HW1 3011   1.889   1.272   2.380 -0.3408 -1.4147 -0.7902
 1064SOL    HW2 3012   1.927   1.314   2.227 -0.0900  0.7433 -0.1622
 1065SOL     OW 3013   1.844   3.040   2.183  0.1719  0.2920  0.2614
 1065SOL    HW1 3014   1.756   3.049   2.136 -0.0637 -0.2578  0.5873
 1065SOL    HW2 3015   1.855   2.946   2.216 -0.0054  0.8237  1.9457
 1066SOL     OW 3016   4.384   3.809   3.152 -0.4710 -0.3572 -0.0546
 1066SOL    HW1 3017   4.298   3.853   3.128  0.2390  1.6513  0.8366
 1066SOL    HW2 3018   4.391   3.802   3.252  0.8890  0.6588 -0.0414
 1067SOL     OW 3019   0.108   3.017   3.049 -0.3580  0.0111  0.2978
 1067SOL    HW1 3020   0.183   3.030   2.984  0.3659  0.0523  1.1241
 1067SOL    HW2 3021   0.075   2.923   3.044  0.5941 -0.3530  0.8177
 1068SOL     OW 3022   0.079   3.085   2.274 -0.1281  0.0930 -0.4885
 1068SOL    HW1 3023   0.157   3.051   2.223 -0.4567 -1.4593 -0.0130
 1068SOL    HW2 3024   0.016   3.132   2.212  0.4839  0.0861 -1.1214
 1069SOL     OW 3025   1.634   3.558   2.648  0.1391  0.3675 -0.0136
 1069SOL    HW1 3026   1.556   3.621   2.653 -0.6522 -0.5901  0.1808
 1069SOL    HW2 3027   1.716   3.608   2.621 -0.6503  1.3182 -0.7257
 1070SOL     OW 3028   1.756   1.868   2.999 -0.1487  0.0304 -0.0912
 1070SOL    HW1 3029   1.762   1.808   3.079  1.4504  0.1154 -0.1069
 1070SOL    HW2 3030   1.848   1.885   2.963 -0.5877  2.1370 -0.3538
 1071SOL     OW 3031   0.703   2.578   2.860  0.6492  0.0954  0.0314
 1071SOL    HW1 3032   0.709   2.631   2.775  3.6144 -2.2443 -1.4189
 1071SOL    HW2 3033   0.785   2.594   2.915 -0.0033 -0.4370  1.1881
 1072SOL     OW 3034   1.367   3.061   0.818  0.2614 -0.2139 -0.1625
 1072SOL    HW1 3035   1.433   3.020   0.755 -0.9441 -1.6149 -0.5576
 1072SOL    HW2 3036   1.388   3.033   0.912 -0.1953 -1.2653 -0.3662
 1073SOL     OW 3037   0.838   2.889   2.886 -0.0787 -0.2473 -0.2878
 1073SOL    HW1 3038   0.832   2.985   2.912  1.2500  0.0568 -1.0355
 1073SOL    HW2 3039   0.861   2.833   2.965 -1.3545 -0.0376  0.2571
 1074SOL     OW 3040   4.969   1.634   2.146  0.1303  0.2901 -0.5700
 1074SOL    HW1 3041   4.999   1.656   2.239 -1.5280 -1.2807  0.3898
 1074SOL    HW2 3042   4.879   1.675   2.130  0.1716  0.1054 -1.3063
 1075SOL     OW 3043   1.516   3.981   2.083  0.3610  0.5394  0.6133
 1075SOL    HW1 3044   1.567   4.065   2.100 -1.5243  1.8574  0.0871
 1075SOL    HW2 3045   1.484   3.980   1.988 -0.7088 -0.1534  0.9676
 1076SOL     OW 3046   0.519   2.304   4.252  0.5224  0.7508  0.1540
 1076SOL    HW1 3047   0.595   2.282   4.191  0.1875  2.5579 -0.9873
 1076SOL    HW2 3048   0.485   2.220   4.295  1.3557 -0.4563 -1.4632
 1077SOL     OW 3049   0.161   1.970   3.560  0.1457  0.1663 -0.3789
 1077SOL    HW1 3050   0.147   1.960   3.659  0.3748  1.5889 -0.1859
 1077SOL    HW2 3051   0.119   1.892   3.513  0.7427 -0.9563  0.8789
 1078SOL     OW 3052   0.768   2.761   2.655  0.0447 -0.1960 -0.3794
 1078SOL    HW1 3053   0.786   2.807   2.741  1.6468 -2.0923  0.3647
 1078SOL    HW2 3054   0.777   2.826   2.580 -0.2807  1.2314  0.7732
 1079SOL     OW 3055   1.117   2.199   1.989 -0.1047 -0.2576  0.5671
 1079SOL    HW1 3056   1.194   2.244   1.943  0.1240  0.4635  1.6240
 1079SOL    HW2 3057   1.150   2.146   2.066 -0.6989  0.3767  1.2729
 1080SOL     OW 3058   4.898   3.317   1.883  0.4514 -0.2779  0.5503
 1080SOL    HW1 3059   4.968   3.293   1.815  1.3579  0.0012  1.3547
 1080SOL    HW2 3060   4.894   3.246   1.953  0.7397  0.2539  1.1165
 1081SOL     OW 3061   2.681   2.506   3.593 -0.0307 -0.0151  0.1662
 1081SOL    HW1 3062   2.701   2.604   3.584 -0.8506  0.3549  1.9259
 1081SOL    HW2 3063   2.693   2.479   3.689 -3.3923 -0.7609  0.4881
 1082SOL     OW 3064   4.726   4.811   1.316 -0.4891  0.0407  0.3208
 1082SOL    HW1 3065   4.629   4.806   1.341 -0.6604 -0.7220 -0.4625
 1082SOL    HW2 3066   4.780   4.760   1.383 -0.5287  1.0567  1.1648
 1083SOL     OW 3067   4.361   3.690   4.734 -0.4472 -0.2642  0.0565
 1083SOL    HW1 3068   4.403   3.760   4.675 -1.0446 -0.4882 -0.6358
 1083SOL    HW2 3069   4.311   3.625   4.678 -3.0366  0.8469  0.9314
 1084SOL     OW 3070   0.594   2.124   4.652 -0.3132 -0.0189  0.1496
 1084SOL    HW1 3071   0.561   2.124   4.747 -0.5083 -0.1816  0.0834
 1084SOL    HW2 3072   0.516   2.132   4.590 -0.1987 -0.0799 -0.0018
 1085SOL     OW 3073   0.414   1.863   0.958 -0.0447  0.2371 -0.2045
 1085SOL    HW1 3074   0.482   1.808   1.008 -1.3178 -0.5128  0.7666
 1085SOL    HW2 3075   0.380   1.811   0.880 -0.5698 -0.0021  0.1753
 1086SOL     OW 3076   0.599   2.278   3.639  0.0271  0.7649  1.2599
 1086SOL    HW1 3077   0.618   2.298   3.543  0.9798  1.1228  1.5083
 1086SOL    HW2 3078   0.525   2.336   3.671 -1.9703 -1.0064  0.1263
 1087SOL     OW 3079   4.952   2.777   2.645  0.1430  0.2384  0.3062
 1087SOL    HW1 3080   5.016   2.701   2.645  1.2267  1.1319  0.2067
 1087SOL    HW2 3081   4.994   2.856   2.601 -1.0543  0.8250  0.1789
 1088SOL     OW 3082   1.512   2.768   0.602 -0.0729  0.2763 -0.3840
 1088SOL    HW1 3083   1.565   2.832   0.658 -1.1696  0.2812  0.6941
 1088SOL    HW2 3084   1.446   2.719   0.659  2.7108 -4.1593 -0.5283
 1089SOL     OW 3085   0.258   2.376   4.291  0.2857 -0.1805  0.2107
 1089SOL    HW1 3086   0.252   2.395   4.390 -1.3001 -0.8736  0.2825
 1089SOL    HW2 3087   0.353   2.360   4.266  0.9381  1.6181  1.3153
 1090SOL     OW 3088   1.085   2.894   2.707  0.1850 -0.0976  0.2126
 1090SOL    HW1 3089   1.094   2.922   2.611 -0.0832  0.4244  0.3352
 1090SOL    HW2 3090   0.992   2.913   2.739  0.2672 -0.2911  0.5696
 1091SOL     OW 3091   4.931   2.570   4.257 -0.3620 -0.1925  0.1913
 1091SOL    HW1 3092   4.859   2.628   4.220 -0.6685 -1.0904 -0.6578
 1091SOL    HW2 3093   4.978   2.524   4.183 -0.3852 -1.3245  0.8529
 1092SOL     OW 3094   1.301   4.403   2.977  0.0939 -0.4141  0.8118
 1092SOL    HW1 3095   1.364   4.340   2.933 -0.3327 -0.0447 -0.3515
 1092SOL    HW2 3096   1.347   4.449   3.054  1.1982 -0.2511  0.0669
 1093SOL     OW 3097   0.974   4.407   4.050  0.0384  0.0341  0.1475
 1093SOL    HW1 3098   1.072   4.386   4.050  0.2917  0.9676 -2.0938
 1093SOL    HW2 3099   0.961   4.502   4.079  0.0168  0.5789 -1.5716
 1094SOL     OW 3100   1.986   2.887   3.834 -0.3562 -0.5870 -0.1200
 1094SOL    HW1 3101   1.979   2.800   3.884 -1.5550  0.1238  0.9789
 1094SOL    HW2 3102   2.062   2.941   3.871 -0.4879 -0.5689  0.1201
 1095SOL     OW 3103   1.812   1.186   1.576  0.0060 -0.1962 -0.1300
 1095SOL    HW1 3104   1.816   1.278   1.537 -2.0407 -0.2061 -0.4984
 1095SOL    HW2 3105   1.828   1.190   1.674  0.7348  0.4352 -0.2678
 1096SOL     OW 3106   0.585   2.630   2.495 -0.1689 -0.5566 -0.2553
 1096SOL    HW1 3107   0.621   2.695   2.562  0.9947 -1.7467  0.3257
 1096SOL    HW2 3108   0.515   2.674   2.440  1.0071  1.3640 -0.2977
 1097SOL     OW 3109   1.599   2.279   3.674  0.3653  0.2741 -0.4165
 1097SOL    HW1 3110   1.684   2.246   3.715  0.6754  2.0847  0.5291
 1097SOL    HW2 3111   1.522   2.249   3.729  0.4974 -0.2340 -0.5028
 1098SOL     OW 3112   2.095   1.726   3.269  0.2741 -0.4103 -0.6035
 1098SOL    HW1 3113   2.052   1.731   3.359  2.5172 -2.0221  0.6701
 1098SOL    HW2 3114   2.024   1.716   3.199 -1.4895 -0.9925  1.1548
 1099SOL     OW 3115   1.088   3.150   1.904 -0.3904  0.1653 -0.2939
 1099SOL    HW1 3116   1.041   3.155   1.816  0.1425 -0.5905 -0.6250
 1099SOL    HW2 3117   1.065   3.064   1.950 -0.5703  0.4998  0.2624
 1100SOL     OW 3118   1.098   4.233   3.068 -0.0805 -0.0652  0.5680
 1100SOL    HW1 3119   1.161   4.185   3.129  0.0088  0.2279  0.7096
 1100SOL    HW2 3120   1.141   4.317   3.035  1.6594 -2.1755 -3.3190
 1101SOL     OW 3121   1.080   2.602   2.787  0.2656 -0.1278  0.0710
 1101SOL    HW1 3122   1.087   2.651   2.700 -1.0420 -0.5630 -0.2944
 1101SOL    HW2 3123   1.002   2.540   2.784 -1.1504  1.4275  2.3337
 1102SOL     OW 3124   0.336   2.885   1.864 -0.2094 -0.3842 -0.7402
 1102SOL    HW1 3125   0.433   2.860   1.854 -0.2536 -0.3556 -1.3003
 1102SOL    HW2 3126   0.312   2.952   1.793 -0.4170  0.2824 -0.0630
 1103SOL     OW 3127   2.839   4.463   2.174  0.4452 -0.3635 -0.0075
 1103SOL    HW1 3128   2.937   4.480   2.160  0.3612  0.2885  0.1684
 1103SOL    HW2 3129   2.798   4.540   2.223  0.0279 -1.0455  0.7525
 1104SOL     OW 3130   4.030   3.877   3.365 -0.5598  0.6104  0.2856
 1104SOL    HW1 3131   3.962   3.817   3.322  0.8213  0.0235 -1.1744
 1104SOL    HW2 3132   4.100   3.821   3.409 -1.5668  1.1937  2.8651
 1105SOL     OW 3133   4.251   2.824   1.906  0.1797 -0.3095 -0.2786
 1105SOL    HW1 3134   4.240   2.724   1.909 -0.4151 -0.3059 -1.6325
 1105SOL    HW2 3135   4.347   2.846   1.886  0.0867 -0.6452 -1.1251
 1106SOL     OW 3136   1.191   3.770   3.106 -0.1041 -0.0306  0.0131
 1106SOL    HW1 3137   1.128   3.775   3.029  1.0977  1.2337 -0.9489
 1106SOL    HW2 3138   1.273   3.823   3.085  0.8906 -0.8611  1.5901
 1107SOL     OW 3139   2.597   2.048   3.049 -0.1180  0.0537  0.1164
 1107SOL    HW1 3140   2.522   2.041   3.114 -0.6646  0.4357 -0.4672
 1107SOL    HW2 3141   2.665   2.113   3.082 -0.8348  0.9333 -0.1231
 1108SOL     OW 3142   4.538   2.733   2.282  0.0196 -0.0492 -0.0596
 1108SOL    HW1 3143   4.534   2.660   2.350 -0.2056  0.1176  0.1051
 1108SOL    HW2 3144   4.509   2.819   2.323 -1.1635 -0.1518 -0.6510
 1109SOL     OW 3145   2.319   3.365   3.735 -0.2741  0.0040  0.0735
 1109SOL    HW1 3146   2.304   3.269   3.710 -1.3764  0.2840 -0.4349
 1109SOL    HW2 3147   2.263   3.423   3.676  0.3335  0.9599  0.4208
 1110SOL     OW 3148   4.669   2.292   3.673  0.3754 -0.9255  0.0659
 1110SOL    HW1 3149   4.573   2.318   3.681  0.8693  0.7628  1.0283
 1110SOL    HW2 3150   4.705   2.325   3.586  0.4074 -0.3523  0.2889
 1111SOL     OW 3151   0.453   3.746   2.944  0.2944  0.0852 -0.5841
 1111SOL    HW1 3152   0.522   3.684   2.908  0.5351  1.0765 -1.9426
 1111SOL    HW2 3153   0.459   3.834   2.896 -1.3310  0.4964 -0.1128
 1112SOL     OW 3154   1.689   1.639   2.510 -0.1380  0.3664 -0.3269
 1112SOL    HW1 3155   1.742   1.684   2.583  0.9605 -0.9416 -0.2859
 1112SOL    HW2 3156   1.666   1.546   2.538 -0.0962  0.0000 -1.4808
 1113SOL     OW 3157   2.407   1.283   2.780 -0.1005 -0.6349  0.1434
 1113SOL    HW1 3158   2.423   1.361   2.720 -0.8433 -1.3794 -1.0865
 1113SOL    HW2 3159   2.316   1.290   2.821  1.0113  0.7171  2.5951
 1114SOL     OW 3160   0.914   2.889   1.532  0.2660  0.3858 -0.1581
 1114SOL    HW1 3161   0.912   2.978   1.579  0.4083  0.6731 -0.6944
 1114SOL    HW2 3162   0.940   2.818   1.598  1.2273  0.8965  0.0303
 1115SOL     OW 3163   0.928   3.425   3.396 -0.0791  0.1709 -0.2381
 1115SOL    HW1 3164   0.914   3.524   3.397 -0.7994  0.1691 -2.6887
 1115SOL    HW2 3165   1.026   3.405   3.392  0.0434  0.8587 -1.0237
 1116SOL     OW 3166   2.614   0.845   1.260  0.1104  0.0924  0.3012
 1116SOL    HW1 3167   2.613   0.826   1.358 -0.2787 -0.4537  0.1975
 1116SOL    HW2 3168   2.623   0.759   1.209 -0.3204  0.3053 -0.1497
 1117SOL     OW 3169   1.265   2.271   0.570  0.6254  0.2336 -0.0429
 1117SOL    HW1 3170   1.243   2.335   0.496  0.2815 -0.8164 -0.8697
 1117SOL    HW2 3171   1.212   2.187   0.558 -0.1056  0.3691  1.9048
 1118SOL     OW 3172   1.550   2.278   2.570  0.2158  0.1054  0.6094
 1118SOL    HW1 3173   1.580   2.183   2.580  0.9940  0.0624 -1.6522
 1118SOL    HW2 3174   1.451   2.281   2.556  0.0505 -0.2680  1.5963
 1119SOL     OW 3175   0.226   2.338   2.306 -0.1441  0.2505 -0.2483
 1119SOL    HW1 3176   0.180   2.312   2.390 -0.6679 -1.8367 -1.1265
 1119SOL    HW2 3177   0.323   2.354   2.324 -0.5194  1.3179  0.9797
 1120SOL     OW 3178   0.294   3.037   2.097  0.3718  0.5681  0.3485
 1120SOL    HW1 3179   0.303   3.111   2.030  0.2562 -0.6854 -1.1043
 1120SOL    HW2 3180   0.291   2.950   2.050 -0.0463 -0.3516  2.0008
 1121SOL     OW 3181   0.191   2.625   3.882  0.0145 -0.0296 -0.0443
 1121SOL    HW1 3182   0.278   2.674   3.888 -0.3257  0.4025  2.6181
 1121SOL    HW2 3183   0.207   2.527   3.886  0.3783  0.0639  1.1801
 1122SOL     OW 3184   4.516   1.515   4.855  0.0271  0.2705 -0.4239
 1122SOL    HW1 3185   4.583   1.480   4.920  1.5666  1.9281 -1.0208
 1122SOL    HW2 3186   4.426   1.518   4.898  0.7277 -0.0356  1.1320
 1123SOL     OW 3187   0.582   2.811   4.753  0.5520 -0.5075 -0.1824
 1123SOL    HW1 3188   0.629   2.877   4.694  1.3785 -0.1879  0.8151
 1123SOL    HW2 3189   0.526   2.750   4.696 -2.0320  2.4062 -1.0218
 1124SOL     OW 3190   0.573   3.526   3.358 -0.6167  0.1882  0.5438
 1124SOL    HW1 3191   0.658   3.573   3.381 -0.4122 -0.4938  1.2724
 1124SOL    HW2 3192   0.593   3.445   3.302 -0.6896 -0.3768  1.3073
 1125SOL     OW 3193   2.149   2.128   0.133  0.1457 -0.1698 -0.2124
 1125SOL    HW1 3194   2.101   2.133   0.221 -0.0796  1.6278 -0.3995
 1125SOL    HW2 3195   2.248   2.135   0.149  0.0655  0.8582 -0.1426
 1126SOL     OW 3196   1.684   3.177   3.667 -0.1897  0.5054 -0.1424
 1126SOL    HW1 3197   1.695   3.084   3.704  0.2063  0.1923 -1.0306
 1126SOL    HW2 3198   1.662   3.239   3.742  1.6897  0.0899  0.8138
 1127SOL     OW 3199   2.302   2.536   4.633 -0.4318  0.5575 -0.4614
 1127SOL    HW1 3200   2.229   2.517   4.698 -0.5061 -1.4787 -1.0899
 1127SOL    HW2 3201   2.389   2.549   4.682 -0.6444 -0.0850  0.0936
 1128SOL     OW 3202   1.555   4.189   4.131 -0.1513 -0.4931 -0.0800
 1128SOL    HW1 3203   1.538   4.277   4.085  0.8916  0.4125  1.1733
 1128SOL    HW2 3204   1.604   4.128   4.069  1.0759  0.6397 -0.2843
 1129SOL     OW 3205   0.339   2.916   3.451 -0.2707 -0.5087 -0.1474
 1129SOL    HW1 3206   0.314   2.834   3.401 -0.4848 -0.2670 -0.4353
 1129SOL    HW2 3207   0.431   2.905   3.490  0.1025 -0.5037 -1.0111
 1130SOL     OW 3208   1.437   3.220   4.118  0.6871  0.5831 -0.2287
 1130SOL    HW1 3209   1.429   3.291   4.189 -0.8199 -0.2779  0.5067
 1130SOL    HW2 3210   1.495   3.146   4.151 -0.8337 -0.3046  0.5853
 1131SOL     OW 3211   0.433   1.659   3.980  0.1485  0.0481  0.2507
 1131SOL    HW1 3212   0.383   1.578   4.011  1.9933 -0.5837  1.7466
 1131SOL    HW2 3213   0.393   1.741   4.021  1.2926 -0.5993  2.8035
 1132SOL     OW 3214   1.653   4.003   3.966 -0.3984  0.3076  0.0270
 1132SOL    HW1 3215   1.741   4.031   3.929  0.7060 -0.2870  2.0807
 1132SOL    HW2 3216   1.644   3.904   3.961 -0.4049  0.2547  0.9180
 1133SOL     OW 3217   4.707   3.069   3.984 -0.8418  0.5144  0.5090
 1133SOL    HW1 3218   4.696   2.997   4.053  2.1909 -1.5857 -0.9701
 1133SOL    HW2 3219   4.771   3.138   4.017  0.4603 -0.3898 -0.0638
 1134SOL     OW 3220   4.807   2.678   4.032  0.0127  0.0152  0.4971
 1134SOL    HW1 3221   4.892   2.675   3.979 -0.4227 -0.9522 -0.1776
 1134SOL    HW2 3222   4.749   2.601   4.006 -1.9700  1.7513 -0.5898
 1135SOL     OW 3223   5.081   4.094   4.244 -0.2774 -0.0055  0.1296
 1135SOL    HW1 3224   5.098   4.173   4.303  1.7584  0.6211 -1.2065
 1135SOL    HW2 3225   5.027   4.027   4.294 -1.1711  1.7517  1.6629
 1136SOL     OW 3226   5.040   3.227   2.921 -0.2213 -0.2950 -0.3444
 1136SOL    HW1 3227   4.942   3.221   2.942 -0.1690 -0.3113 -0.1058
 1136SOL    HW2 3228   5.086   3.144   2.952 -0.0072  0.0282  0.2250
 1137SOL     OW 3229   1.348   2.606   4.956 -0.0050  0.3939 -0.1954
 1137SOL    HW1 3230   1.271   2.549   4.985  1.8759 -0.8944  2.8337
 1137SOL    HW2 3231   1.322   2.702   4.958 -1.4526  0.0110  1.1967
 1138SOL     OW 3232   0.840   4.682   4.425  0.0662  0.2587 -0.0703
 1138SOL    HW1 3233   0.883   4.759   4.471  2.7080 -1.8020  1.1657
 1138SOL    HW2 3234   0.778   4.636   4.488  2.6727 -1.7657  1.2116
 1139SOL     OW 3235   0.906   3.640   4.376  0.0818  0.5686 -0.6856
 1139SOL    HW1 3236   0.974   3.667   4.308  0.8039  4.0366  1.1892
 1139SOL    HW2 3237   0.814   3.663   4.343  0.4348  2.3562 -0.4951
 1140SOL     OW 3238   1.321   1.830   4.525 -0.0296 -0.4952  0.2129
 1140SOL    HW1 3239   1.415   1.834   4.491 -0.1610  1.3399 -0.0154
 1140SOL    HW2 3240   1.288   1.923   4.544 -1.2278 -1.2126  1.8933
 1141SOL     OW 3241   2.761   2.236   3.715  0.0583 -0.1383  0.3071
 1141SOL    HW1 3242   2.822   2.259   3.639  1.5951  0.1467  1.5667
 1141SOL    HW2 3243   2.746   2.137   3.718  1.2169 -0.3232  0.5016
 1142SOL     OW 3244   0.873   3.969   3.754  0.1669 -0.0566 -0.2194
 1142SOL    HW1 3245   0.925   3.925   3.827 -1.3987 -2.4501 -0.4148
 1142SOL    HW2 3246   0.775   3.953   3.769 -0.2703  0.6492 -2.0805
 1143SOL     OW 3247   0.490   0.571   4.131  0.3741  0.2160  0.2626
 1143SOL    HW1 3248   0.425   0.646   4.122  0.1508 -0.0415 -0.3416
 1143SOL    HW2 3249   0.465   0.498   4.068  1.2659  0.1186  0.0092
 1144SOL     OW 3250   0.782   3.092   4.079  0.3907  0.2599  0.1243
 1144SOL    HW1 3251   0.803   3.079   4.176 -0.8733  1.2545  0.5588
 1144SOL    HW2 3252   0.836   3.168   4.044 -0.3070  0.9478  0.4930
 1145SOL     OW 3253   2.461   2.418   3.439 -0.3185 -0.1368  0.3037
 1145SOL    HW1 3254   2.487   2.321   3.431 -0.3718 -0.0162 -1.7835
 1145SOL    HW2 3255   2.520   2.463   3.505  1.1176 -1.1232 -0.2649
 1146SOL     OW 3256   1.411   2.248   4.844  0.0526  0.3303 -0.2081
 1146SOL    HW1 3257   1.487   2.281   4.788  0.3982  0.2383  0.2009
 1146SOL    HW2 3258   1.390   2.317   4.914  0.7337 -0.2740  0.6092
 1147SOL     OW 3259   1.503   4.244   4.397  0.2134 -0.1747 -0.1971
 1147SOL    HW1 3260   1.527   4.251   4.300  1.1271  0.2275  0.0473
 1147SOL    HW2 3261   1.546   4.163   4.436  1.1898  0.5383  0.2409
 1148SOL     OW 3262   0.639   3.003   0.553  0.1130  0.5318 -0.0715
 1148SOL    HW1 3263   0.654   2.905   0.540  0.0299  0.3416  1.1539
 1148SOL    HW2 3264   0.622   3.046   0.464 -0.1609 -0.6111 -0.5931
 1149SOL     OW 3265   1.996   2.027   4.642  0.3597  0.3498 -0.4704
 1149SOL    HW1 3266   1.925   2.018   4.572  0.8508 -1.1274 -0.8104
 1149SOL    HW2 3267   1.992   1.949   4.704  0.8618  0.9175  0.2884
 1150SOL     OW 3268   2.096   3.653   4.209  0.2585 -0.3247 -0.3216
 1150SOL    HW1 3269   2.004   3.659   4.248  0.0163  1.2214 -1.0322
 1150SOL    HW2 3270   2.134   3.562   4.224 -1.2556 -0.8738  0.2749
 1151SOL     OW 3271   1.072   2.274   0.243  0.3269 -0.1781 -0.3796
 1151SOL    HW1 3272   1.058   2.208   0.316 -0.2568  1.4361  1.0120
 1151SOL    HW2 3273   0.999   2.266   0.176  0.4726 -1.1775 -0.4343
 1152SOL     OW 3274   1.538   2.760   4.377  0.1245  0.1546 -0.0208
 1152SOL    HW1 3275   1.578   2.698   4.309 -1.7253 -0.9762 -0.1515
 1152SOL    HW2 3276   1.594   2.759   4.460  0.4034 -1.3150 -0.2020
 1153SOL     OW 3277   0.621   3.927   3.803  0.1399 -0.2636  0.5104
 1153SOL    HW1 3278   0.603   3.996   3.873 -0.8859  0.4689 -0.4464
 1153SOL    HW2 3279   0.535   3.890   3.768  0.6281 -0.6209 -0.3613
 1154SOL     OW 3280   0.759   3.828   0.022  0.6595 -0.2513 -0.8586
 1154SOL    HW1 3281   0.754   3.902  -0.045  1.5900  0.4625 -0.1636
 1154SOL    HW2 3282   0.852   3.793   0.026  1.6176  2.1654  2.5405
 1155SOL     OW 3283   4.250   4.013   4.034 -0.1366  0.2575  0.2209
 1155SOL    HW1 3284   4.291   3.955   4.104 -0.7876  0.3291  0.6732
 1155SOL    HW2 3285   4.208   4.093   4.077 -1.0366  0.0184 -0.1819
 1156SOL     OW 3286   0.440   3.650   3.980 -0.0728  0.3506  0.1100
 1156SOL    HW1 3287   0.458   3.671   3.884  0.1269  0.7049  0.2224
 1156SOL    HW2 3288   0.449   3.734   4.035  2.2489 -0.2645  0.7837
 1157SOL     OW 3289   1.767   0.521   5.085 -0.0303  0.6235  0.1938
 1157SOL    HW1 3290   1.812   0.596   5.036  1.5172  0.5040  1.3383
 1157SOL    HW2 3291   1.709   0.559   5.156 -0.6838  0.7560 -0.4010
 1158SOL     OW 3292   1.783   3.265   3.439 -0.7087  0.0904  0.8625
 1158SOL    HW1 3293   1.741   3.230   3.522 -0.3575 -0.5560  0.7778
 1158SOL    HW2 3294   1.880   3.238   3.437 -0.4913  0.8564  0.6706
 1159SOL     OW 3295   1.447   4.046   3.742  0.5060 -0.2846 -0.0885
 1159SOL    HW1 3296   1.502   4.045   3.826  1.8364 -0.5740 -0.9401
 1159SOL    HW2 3297   1.356   4.083   3.763  0.0911 -2.2257  1.8966
 1160SOL     OW 3298   1.069   2.070   4.186  0.0154 -0.1812 -0.5353
 1160SOL    HW1 3299   1.064   2.166   4.160  2.8197 -0.0545 -0.9153
 1160SOL    HW2 3300   1.041   2.013   4.108  1.0015  0.3119 -1.2730
 1161SOL     OW 3301   4.611   2.366   4.187  0.7222  0.1670  0.0002
 1161SOL    HW1 3302   4.622   2.410   4.098 -0.1373 -1.4644 -0.9566
 1161SOL    HW2 3303   4.531   2.307   4.185  0.2268  0.6956  2.1332
 1162SOL     OW 3304   1.732   1.425   0.465 -0.4561  0.3564 -0.0246
 1162SOL    HW1 3305   1.821   1.405   0.424  0.8684 -1.7824  3.4530
 1162SOL    HW2 3306   1.735   1.515   0.509 -0.0610  0.2974  0.0644
 1163SOL     OW 3307   2.064   4.316   4.578  0.0241 -0.4431 -0.2438
 1163SOL    HW1 3308   2.097   4.387   4.640  1.1777 -0.3568 -0.9331
 1163SOL    HW2 3309   2.016   4.359   4.501 -0.6340 -0.5035  0.1273
 1164SOL     OW 3310   2.487   2.956   3.535 -0.4126 -0.0595 -0.2447
 1164SOL    HW1 3311   2.416   2.891   3.508  0.6736 -1.3271 -0.1215
 1164SOL    HW2 3312   2.451   3.016   3.606 -0.3337 -2.9885  2.4712
 1165SOL     OW 3313   4.533   4.877   4.440 -0.4065  0.0367 -0.0376
 1165SOL    HW1 3314   4.560   4.832   4.354 -1.0517 -0.4309 -0.0052
 1165SOL    HW2 3315   4.598   4.950   4.461  0.0679 -0.1979 -0.6428
 1166SOL     OW 3316   2.676   1.988   3.646 -0.0020  0.0417  0.7748
 1166SOL    HW1 3317   2.583   1.952   3.650 -0.3070  0.5589 -0.8726
 1166SOL    HW2 3318   2.740   1.912   3.637 -0.5042 -0.2345 -0.8247
 1167SOL     OW 3319   0.267   3.481   4.740  0.4706  0.4248 -0.9514
 1167SOL    HW1 3320   0.346   3.444   4.691  0.3652 -1.0338 -0.0779
 1167SOL    HW2 3321   0.189   3.419   4.730  0.1743  0.5725  0.2520
 1168SOL     OW 3322   1.442   3.677   4.171 -0.2405  0.4225  0.1501
 1168SOL    HW1 3323   1.413   3.591   4.214  0.7364  1.1022  2.3132
 1168SOL    HW2 3324   1.456   3.747   4.242  1.2238  1.7029 -1.3140
 1169SOL     OW 3325   5.007   3.373   0.242 -0.0476 -0.3742  0.4012
 1169SOL    HW1 3326   5.009   3.345   0.146  0.5464  0.3324  0.2023
 1169SOL    HW2 3327   5.097   3.404   0.270 -0.2603 -0.4021  1.1419
 1170SOL     OW 3328   1.348   1.131   0.651 -0.3284 -0.6258 -1.0123
 1170SOL    HW1 3329   1.360   1.201   0.581 -0.2386 -1.8631 -2.2657
 1170SOL    HW2 3330   1.431   1.077   0.659 -0.0215  0.0360  0.6995
 1171SOL     OW 3331   1.449   3.834   4.396 -0.3678 -0.2518 -0.7941
 1171SOL    HW1 3332   1.380   3.796   4.457 -1.9384 -0.9405 -2.8997
 1171SOL    HW2 3333   1.508   3.896   4.448 -2.3026  0.0769  1.1753
 1172SOL     OW 3334   0.502   2.003   3.725 -0.1445  0.1406 -0.0363
 1172SOL    HW1 3335   0.437   2.030   3.796  0.4393 -0.2764  0.6697
 1172SOL    HW2 3336   0.562   2.081   3.704  0.2090  0.0301  0.5261
 1173SOL     OW 3337   0.663   2.462   4.455  0.0661 -0.8035  0.3586
 1173SOL    HW1 3338   0.623   2.458   4.546  2.2715  0.7222  1.4913
 1173SOL    HW2 3339   0.607   2.410   4.391 -1.6629 -1.7349  2.5233
 1174SOL     OW 3340   2.066   3.336   3.912  0.1209 -0.3375  1.5083
 1174SOL    HW1 3341   2.084   3.284   3.829 -0.3449  0.6169  0.7939
 1174SOL    HW2 3342   2.112   3.292   3.990 -0.2128 -1.7526  0.9210
 1175SOL     OW 3343   4.009   2.649   4.915  0.3677 -0.1050  0.5232
 1175SOL    HW1 3344   3.991   2.631   5.012 -1.0974  2.0715  0.7308
 1175SOL    HW2 3345   4.050   2.568   4.873 -1.9534 -2.3077  2.2075
 1176SOL     OW 3346   0.798   2.193   3.398 -0.4621  0.2647 -0.1264
 1176SOL    HW1 3347   0.884   2.164   3.356  0.7789 -1.8041  3.3421
 1176SOL    HW2 3348   0.721   2.156   3.347  0.5218  2.5462 -3.5955
 1177SOL     OW 3349   1.167   4.857   2.506 -0.4431 -0.0831  0.4133
 1177SOL    HW1 3350   1.067   4.864   2.506 -0.3466  1.8333 -0.1219
 1177SOL    HW2 3351   1.206   4.946   2.483  1.3356 -1.6744 -3.5112
 1178SOL     OW 3352   1.266   3.443   4.554  0.4868  0.4229  0.4252
 1178SOL    HW1 3353   1.211   3.359   4.558 -1.5537  1.1452 -4.4470
 1178SOL    HW2 3354   1.205   3.522   4.559  1.5616  1.3839 -1.0196
 1179SOL     OW 3355   2.647   4.141   3.270  0.6939  0.6569 -0.2869
 1179SOL    HW1 3356   2.622   4.233   3.299 -0.7677  0.6251 -1.3653
 1179SOL    HW2 3357   2.710   4.146   3.192 -0.2265  0.7607 -1.0342
 1180SOL     OW 3358   0.257   2.809   2.777  0.1151 -0.1213  0.0459
 1180SOL    HW1 3359   0.331   2.742   2.787 -0.2449 -1.5563 -4.3958
 1180SOL    HW2 3360   0.175   2.777   2.824  1.1518 -0.5553  1.6134
 1181SOL     OW 3361   1.071   2.369   4.624  0.1388  0.0560 -0.0455
 1181SOL    HW1 3362   1.008   2.320   4.684  0.7919  0.2441  0.8159
 1181SOL    HW2 3363   1.023   2.399   4.542 -0.6024 -0.8143  0.0614
 1182SOL     OW 3364   0.488   1.437   4.642 -0.5167  0.2339 -0.2881
 1182SOL    HW1 3365   0.559   1.368   4.656  1.0900  1.7799 -0.5242
 1182SOL    HW2 3366   0.492   1.505   4.715  0.1106  1.8486 -1.7416
 1183SOL     OW 3367   1.558   1.230   4.835  0.2517 -0.3481  0.2404
 1183SOL    HW1 3368   1.568   1.292   4.758  1.9485  0.9180  1.4037
 1183SOL    HW2 3369   1.594   1.273   4.918 -1.8043 -1.5204  1.8506
 1184SOL     OW 3370   2.539   1.304   3.476  0.3006 -0.0245  0.1056
 1184SOL    HW1 3371   2.464   1.352   3.431  0.9049  0.5958 -0.2504
 1184SOL    HW2 3372   2.507   1.215   3.508 -0.1377 -0.5298 -1.6357
 1185SOL     OW 3373   0.579   1.534   3.546 -0.0832  0.0790 -0.2132
 1185SOL    HW1 3374   0.552   1.476   3.469 -1.2497 -1.0744  1.0014
 1185SOL    HW2 3375   0.513   1.607   3.557 -0.7685 -0.6352  0.5699
 1186SOL     OW 3376   1.035   3.310   4.822 -0.2919  0.4321  0.3225
 1186SOL    HW1 3377   1.117   3.293   4.767 -0.8360  1.6509 -0.9396
 1186SOL    HW2 3378   0.982   3.226   4.830 -0.3101  0.2578 -1.2529
 1187SOL     OW 3379   0.124   3.034   3.326  0.4092 -1.1014 -0.1987
 1187SOL    HW1 3380   0.124   3.015   3.228  2.8433  2.0283 -0.9520
 1187SOL    HW2 3381   0.211   3.003   3.366 -0.6245 -2.5064  1.0951
 1188SOL     OW 3382   1.848   3.682   4.346 -0.7761  0.3707 -0.0537
 1188SOL    HW1 3383   1.890   3.689   4.436  2.0457  1.2937 -1.3268
 1188SOL    HW2 3384   1.811   3.771   4.319  0.4766  0.7243 -0.6908
 1189SOL     OW 3385   1.197   3.357   3.437 -0.1434  0.1897 -0.3341
 1189SOL    HW1 3386   1.225   3.450   3.459 -1.5723  0.5482  0.0739
 1189SOL    HW2 3387   1.216   3.297   3.515  0.0333  0.2994 -0.2926
 1190SOL     OW 3388   2.117   2.024   3.191  0.2031 -0.3472  0.1249
 1190SOL    HW1 3389   2.115   2.036   3.091 -2.2346  0.8756  0.2338
 1190SOL    HW2 3390   2.062   1.945   3.216  0.6004 -0.4991  0.5276
 1191SOL     OW 3391   1.634   2.265   4.696 -0.5665 -0.3728  0.3403
 1191SOL    HW1 3392   1.723   2.252   4.740 -0.8001 -0.4655  0.8000
 1191SOL    HW2 3393   1.638   2.232   4.602  0.0740  0.2450  0.1469
 1192SOL     OW 3394   1.672   2.547   4.614  0.4448 -0.3342  0.1536
 1192SOL    HW1 3395   1.756   2.515   4.570  0.5908  0.6904 -0.3353
 1192SOL    HW2 3396   1.615   2.468   4.639  0.0465 -0.9615 -2.4664
 1193SOL     OW 3397   2.235   3.101   3.247 -0.1857 -0.1136 -0.2355
 1193SOL    HW1 3398   2.204   3.142   3.161  0.9907 -2.0064 -1.6754
 1193SOL    HW2 3399   2.335   3.104   3.251 -0.2620  0.9472  1.6446
 1194SOL     OW 3400   0.724   2.996   4.603  0.2211 -0.2069  0.7315
 1194SOL    HW1 3401   0.692   3.071   4.545 -1.0279  0.4983  2.2719
 1194SOL    HW2 3402   0.797   3.029   4.663  1.0454 -0.7663  0.0685
 1195SOL     OW 3403   1.159   2.548   3.723  0.0065 -0.4505 -0.1687
 1195SOL    HW1 3404   1.195   2.456   3.704  0.4312 -0.3932  0.3487
 1195SOL    HW2 3405   1.174   2.606   3.643  2.8101  0.1050  0.6435
 1196SOL     OW 3406   1.352   2.751   3.468 -0.0002  0.0133  0.5477
 1196SOL    HW1 3407   1.400   2.688   3.407  0.5540 -0.5456  1.5392
 1196SOL    HW2 3408   1.254   2.751   3.447  0.0025 -1.1178  0.4906
 1197SOL     OW 3409   0.302   1.417   4.453 -0.1109  0.0904  0.0350
 1197SOL    HW1 3410   0.366   1.405   4.529 -0.0099 -0.9811 -0.1960
 1197SOL    HW2 3411   0.329   1.495   4.398  2.4443 -1.6899 -1.4221
 1198SOL     OW 3412   1.553   3.596   4.652  0.2627  0.3688 -0.0631
 1198SOL    HW1 3413   1.638   3.571   4.700  1.2489  0.3181 -1.7719
 1198SOL    HW2 3414   1.562   3.575   4.555 -1.7530  0.3230 -0.2692
 1199SOL     OW 3415   1.334   2.894   3.713 -0.0028 -0.0480 -0.3850
 1199SOL    HW1 3416   1.361   2.839   3.633 -0.7100 -0.6067 -0.2541
 1199SOL    HW2 3417   1.321   2.833   3.792 -0.3073  0.3719 -0.1072
 1200SOL     OW 3418   1.857   1.703   3.693 -0.1996 -0.2058 -0.3159
 1200SOL    HW1 3419   1.898   1.714   3.602 -1.5440 -0.0744 -0.9362
 1200SOL    HW2 3420   1.762   1.737   3.691  0.2962  1.5259  1.6123
 1201SOL     OW 3421   0.241   2.719   0.244 -0.4534 -0.2395  0.1296
 1201SOL    HW1 3422   0.293   2.716   0.159 -1.6464 -1.8693 -0.5912
 1201SOL    HW2 3423   0.145   2.738   0.225 -1.0255 -2.1082  0.9033
 1202SOL     OW 3424   0.528   2.404   0.739  0.0094  0.0553 -0.0429
 1202SOL    HW1 3425   0.567   2.412   0.831 -0.0467  0.5875 -0.0590
 1202SOL    HW2 3426   0.534   2.493   0.693 -2.1912  0.4618  0.3506
 1203SOL     OW 3427   1.291   1.943   4.243  0.0034  0.0850 -0.4658
 1203SOL    HW1 3428   1.256   1.851   4.257  0.5855  0.1263  1.6047
 1203SOL    HW2 3429   1.215   2.005   4.220 -0.7658 -0.4693  0.5198
 1204SOL     OW 3430   1.463   3.340   3.106 -0.4806 -0.2249  0.0365
 1204SOL    HW1 3431   1.509   3.359   3.193 -1.7823  0.2479  0.6519
 1204SOL    HW2 3432   1.452   3.426   3.055 -4.7698  0.6802  2.0160
 1205SOL     OW 3433   0.063   1.327   4.531  0.3947  0.0172 -0.5668
 1205SOL    HW1 3434   0.149   1.376   4.515 -0.0373  0.4085 -1.7883
 1205SOL    HW2 3435   0.055   1.253   4.465  1.0165 -1.7411  1.2132
 1206SOL     OW 3436   0.803   3.158   1.048  0.3218  0.1130  0.5180
 1206SOL    HW1 3437   0.865   3.157   1.127  0.3158 -0.6657  0.5214
 1206SOL    HW2 3438   0.803   3.067   1.005 -1.8237 -0.3185  1.3018
 1207SOL     OW 3439   1.607   1.621   0.200 -0.0259  1.0152 -0.0247
 1207SOL    HW1 3440   1.703   1.643   0.218  0.0358 -0.5924  2.0949
 1207SOL    HW2 3441   1.602   1.531   0.155 -0.5050  2.0101 -2.0535
 1208SOL     OW 3442   0.086   3.533   3.509 -0.4459  0.1663 -0.1807
 1208SOL    HW1 3443   0.076   3.548   3.608 -2.3818 -1.4639 -0.0675
 1208SOL    HW2 3444   0.098   3.435   3.492  1.3847  0.5693 -1.5150
 1209SOL     OW 3445   1.501   2.597   3.308 -0.1470  0.0984  0.1807
 1209SOL    HW1 3446   1.522   2.516   3.362 -1.3995 -1.2660 -1.2909
 1209SOL    HW2 3447   1.586   2.634   3.269  0.3961 -0.7114  0.5805
 1210SOL     OW 3448   1.828   2.368   0.177 -0.1556 -0.1537  0.6939
 1210SOL    HW1 3449   1.851   2.290   0.234  0.8460 -0.6310 -0.3171
 1210SOL    HW2 3450   1.729   2.382   0.177 -0.8860 -3.8351 -2.0630
 1211SOL     OW 3451   1.512   2.351   3.423  0.1200 -0.2959 -0.0182
 1211SOL    HW1 3452   1.545   2.311   3.508 -1.0211 -1.0375  0.1017
 1211SOL    HW2 3453   1.579   2.334   3.350  1.2158  0.5598  0.7651
 1212SOL     OW 3454   2.230   3.167   4.454  0.5427  0.1304 -0.0461
 1212SOL    HW1 3455   2.245   3.229   4.531  0.0882  0.4939 -0.2448
 1212SOL    HW2 3456   2.204   3.220   4.374  0.5933 -0.2850 -0.3369
 1213SOL     OW 3457   1.042   4.096   4.599 -0.3214 -0.5292  0.0989
 1213SOL    HW1 3458   0.976   4.047   4.543 -0.4414 -0.1477 -0.0908
 1213SOL    HW2 3459   1.117   4.130   4.542  0.2930 -1.3702  0.3772
 1214SOL     OW 3460   0.247   1.860   4.087  0.8652  0.6910  0.4459
 1214SOL    HW1 3461   0.194   1.801   4.148 -1.6502  1.8182 -0.5277
 1214SOL    HW2 3462   0.266   1.947   4.132  1.4498  0.5007  0.5839
 1215SOL     OW 3463   1.209   2.468   0.380 -0.5225  0.3443  0.7336
 1215SOL    HW1 3464   1.150   2.424   0.312 -0.1357  0.9626 -0.0164
 1215SOL    HW2 3465   1.180   2.563   0.391  2.1649  1.6143 -1.9271
 1216SOL     OW 3466   0.993   2.619   4.471 -0.6204 -0.0844 -0.5091
 1216SOL    HW1 3467   1.076   2.675   4.479 -2.4704  2.7409  0.6075
 1216SOL    HW2 3468   0.956   2.629   4.378 -1.4434  1.4941 -0.0654
 1217SOL     OW 3469   4.897   3.887   3.130  0.4321 -0.3061 -0.3538
 1217SOL    HW1 3470   4.948   3.891   3.045  1.5152  1.3249  0.3172
 1217SOL    HW2 3471   4.911   3.972   3.181 -2.3654 -0.0758  0.2132
 1218SOL     OW 3472   4.744   2.983   0.128 -0.4121  0.2941  0.1677
 1218SOL    HW1 3473   4.755   3.050   0.054  4.1303 -0.1950  0.1143
 1218SOL    HW2 3474   4.735   2.892   0.088 -0.1646  0.2574  0.1921
 1219SOL     OW 3475   0.264   3.253   3.731 -0.3948 -0.2053 -0.6872
 1219SOL    HW1 3476   0.255   3.320   3.805 -1.3750 -1.1016  0.0300
 1219SOL    HW2 3477   0.339   3.281   3.670  0.9294  0.1921  1.0252
 1220SOL     OW 3478   1.255   2.869   0.232  0.2375 -0.3812  0.3134
 1220SOL    HW1 3479   1.354   2.880   0.223  0.8470 -3.6305  1.5816
 1220SOL    HW2 3480   1.213   2.959   0.246  2.8045  1.2402 -1.4477
 1221SOL     OW 3481   4.671   1.650   4.073  0.5147  0.1620 -0.0290
 1221SOL    HW1 3482   4.668   1.729   4.134  0.3746  0.4134 -0.3570
 1221SOL    HW2 3483   4.724   1.673   3.992 -0.8611  0.4598 -0.8787
 1222SOL     OW 3484   1.463   2.972   3.343 -0.0308 -0.2586 -0.5007
 1222SOL    HW1 3485   1.432   3.062   3.372 -0.0470 -0.4751  0.1585
 1222SOL    HW2 3486   1.425   2.902   3.402  1.6022 -0.5394  0.2911
 1223SOL     OW 3487   0.731   2.524   0.118  0.1162  0.6460  0.4418
 1223SOL    HW1 3488   0.691   2.571   0.040  0.6509 -0.5981 -0.6334
 1223SOL    HW2 3489   0.822   2.561   0.136  0.2024  0.5968  0.1229
 1224SOL     OW 3490   1.309   1.786   0.002 -0.4773 -0.0356  0.1335
 1224SOL    HW1 3491   1.314   1.801  -0.097 -1.7331  0.3724  0.1184
 1224SOL    HW2 3492   1.394   1.818   0.044  0.0647 -0.1962 -0.8021
 1225SOL     OW 3493   0.884   4.017   0.252 -0.4374 -0.0016 -0.0309
 1225SOL    HW1 3494   0.976   4.008   0.290 -0.4237  0.9576  0.1729
 1225SOL    HW2 3495   0.889   4.068   0.166 -0.7785 -0.0163 -0.0595
 1226SOL     OW 3496   0.651   3.282   2.860  0.7186 -0.4220 -0.5287
 1226SOL    HW1 3497   0.690   3.245   2.776  0.1861  0.2618 -1.0956
 1226SOL    HW2 3498   0.671   3.221   2.936  0.4090 -1.5416 -1.3173
 1227SOL     OW 3499   1.425   1.696   4.011  0.3215 -0.1426 -0.6362
 1227SOL    HW1 3500   1.410   1.732   3.920 -2.7478  1.2092  0.2893
 1227SOL    HW2 3501   1.338   1.683   4.058  1.7755  0.3524  2.5372
 1228SOL     OW 3502   1.997   2.649   4.904  0.1683 -0.1529  0.3909
 1228SOL    HW1 3503   1.905   2.658   4.867  0.6919  1.0341 -0.7226
 1228SOL    HW2 3504   1.993   2.641   5.004 -1.1225 -0.1163  0.3557
 1229SOL     OW 3505   0.495   3.876   4.109  0.7209  0.5524 -0.0893
 1229SOL    HW1 3506   0.510   3.956   4.051 -1.7312  1.8706  0.9133
 1229SOL    HW2 3507   0.448   3.905   4.193 -0.2379 -1.9347  0.2982
 1230SOL     OW 3508   1.229   3.946   4.803  0.2171  0.5477  0.2620
 1230SOL    HW1 3509   1.255   3.866   4.748  1.8185  0.2159  1.4305
 1230SOL    HW2 3510   1.170   4.005   4.749 -0.0195 -0.8244 -1.0544
 1231SOL     OW 3511   1.170   3.637   3.888 -0.0522  0.3481 -0.2474
 1231SOL    HW1 3512   1.188   3.576   3.810  1.0162 -1.2999  1.2175
 1231SOL    HW2 3513   1.084   3.609   3.932  0.2631  0.1180  0.2246
 1232SOL     OW 3514   2.090   2.275   4.017  0.7962  0.2980  0.0415
 1232SOL    HW1 3515   2.126   2.342   3.952 -1.1152  1.3320 -0.0007
 1232SOL    HW2 3516   2.058   2.322   4.099 -2.7242 -0.1898 -0.9153
 1233SOL     OW 3517   1.153   2.793   4.199 -0.7157  0.0311 -0.0186
 1233SOL    HW1 3518   1.144   2.892   4.189  0.7235  0.1434 -0.3685
 1233SOL    HW2 3519   1.213   2.772   4.276  0.3431 -0.5255 -0.9743
 1234SOL     OW 3520   2.534   3.156   5.001 -0.1093  0.2674  0.0286
 1234SOL    HW1 3521   2.565   3.074   5.048  1.4355  0.6927 -0.1970
 1234SOL    HW2 3522   2.568   3.237   5.049 -0.5229  0.7509 -0.4788
 1235SOL     OW 3523   2.108   3.764   3.322  0.3057  0.6669  0.0942
 1235SOL    HW1 3524   2.022   3.742   3.369 -0.3310  0.8233 -0.9610
 1235SOL    HW2 3525   2.099   3.852   3.276 -0.2497 -0.7887 -2.8963
 1236SOL     OW 3526   1.869   3.595   0.060  0.0709 -0.5766  0.2118
 1236SOL    HW1 3527   1.835   3.597   0.154  1.1119 -1.2362  0.6188
 1236SOL    HW2 3528   1.795   3.566  -0.001 -0.3809 -1.0174  0.9475
 1237SOL     OW 3529   1.665   0.907   4.465  0.3056 -0.4261  0.0830
 1237SOL    HW1 3530   1.640   0.960   4.546  1.1710  1.5063 -0.8328
 1237SOL    HW2 3531   1.700   0.818   4.492  2.4562  0.8925  2.0033
 1238SOL     OW 3532   0.948   3.475   0.317 -0.4193  0.1090 -0.2217
 1238SOL    HW1 3533   0.927   3.379   0.335  0.4434  0.1995  1.4217
 1238SOL    HW2 3534   1.045   3.492   0.334 -0.9193  1.6641  1.3805
 1239SOL     OW 3535   0.187   4.009   3.609  0.0487  0.1045 -0.1704
 1239SOL    HW1 3536   0.162   3.931   3.666 -2.0289  0.0574 -1.0735
 1239SOL    HW2 3537   0.174   4.094   3.661  0.8983 -0.0624  0.3293
 1240SOL     OW 3538   1.207   3.286   3.996 -0.0074  0.0347 -0.2692
 1240SOL    HW1 3539   1.236   3.344   3.919  0.7111 -1.2893 -1.0356
 1240SOL    HW2 3540   1.284   3.273   4.058 -0.6330  1.2407  0.8073
 1241SOL     OW 3541   0.339   3.366   3.974 -0.1966 -0.5151 -0.6188
 1241SOL    HW1 3542   0.384   3.452   3.998  0.3255 -0.4879 -1.6524
 1241SOL    HW2 3543   0.394   3.289   4.007 -0.0065 -0.4689 -0.8300
 1242SOL     OW 3544   2.346   3.467   4.244  0.9052 -0.0482 -0.4759
 1242SOL    HW1 3545   2.384   3.452   4.153  2.1559 -0.6690  0.1325
 1242SOL    HW2 3546   2.404   3.424   4.313  0.7125  1.5326  0.7487
 1243SOL     OW 3547   0.842   0.178   4.710  0.0083  0.1984  0.1247
 1243SOL    HW1 3548   0.877   0.170   4.617 -0.8852  1.7839 -0.3822
 1243SOL    HW2 3549   0.898   0.122   4.772  1.1570 -0.1712 -1.2103
 1244SOL     OW 3550   1.022   1.385   3.718  0.0408 -0.0092 -0.5946
 1244SOL    HW1 3551   1.085   1.395   3.641  1.4008  0.1236  0.5078
 1244SOL    HW2 3552   0.939   1.438   3.699 -0.3597 -1.2465 -2.6476
 1245SOL     OW 3553   0.293   3.313   3.069  0.2154  0.0638 -0.2331
 1245SOL    HW1 3554   0.274   3.228   3.021  1.4674 -0.7194  0.5799
 1245SOL    HW2 3555   0.248   3.311   3.159 -0.3279  0.5733 -0.4901
 1246SOL     OW 3556   1.757   2.002   5.083 -0.6679  0.5053  0.1137
 1246SOL    HW1 3557   1.847   1.961   5.070 -0.7112  0.0043  1.2772
 1246SOL    HW2 3558   1.734   2.059   5.004  0.8149  0.9234 -0.0286
 1247SOL     OW 3559   0.906   3.568   3.945 -0.1252 -0.0959 -0.0786
 1247SOL    HW1 3560   0.915   3.577   3.846  0.7571  1.5028  0.1172
 1247SOL    HW2 3561   0.850   3.642   3.981  0.8937  0.2891  0.7841
 1248SOL     OW 3562   0.218   2.160   4.134  0.3614 -0.2903  0.1635
 1248SOL    HW1 3563   0.122   2.133   4.142  0.1117 -0.0829 -1.7029
 1248SOL    HW2 3564   0.233   2.245   4.184 -0.1163 -0.9874  1.5304
 1249SOL     OW 3565   5.031   2.753   3.875 -0.2648  0.2460 -0.2799
 1249SOL    HW1 3566   4.998   2.756   3.780 -2.3412 -1.5085  0.2975
 1249SOL    HW2 3567   5.121   2.710   3.878 -0.7365 -0.8890 -1.3569
 1250SOL     OW 3568   0.910   2.516   3.826  0.1653 -0.1989  0.1069
 1250SOL    HW1 3569   0.917   2.565   3.913 -1.6308 -0.7552  0.6275
 1250SOL    HW2 3570   0.990   2.535   3.770  0.4294  1.7649  1.0611
 1251SOL     OW 3571   2.066   2.914   4.446  0.3260 -0.4573  0.6110
 1251SOL    HW1 3572   2.083   2.860   4.529  0.8906  0.6638  1.2430
 1251SOL    HW2 3573   2.123   2.996   4.448 -0.3465  0.0467 -0.4589
 1252SOL     OW 3574   2.369   3.213   0.357  0.2002  0.1808  0.3081
 1252SOL    HW1 3575   2.325   3.161   0.283 -0.1604  0.5391  0.2633
 1252SOL    HW2 3576   2.427   3.152   0.410  3.0422  0.4987 -2.1784
 1253SOL     OW 3577   2.074   3.223   0.654 -0.0613 -0.3517  0.4045
 1253SOL    HW1 3578   2.146   3.291   0.647 -0.0062 -0.2668  1.5114
 1253SOL    HW2 3579   2.097   3.156   0.725  0.6805 -2.5545 -1.7673
 1254SOL     OW 3580   1.410   4.330   3.400 -0.1204  0.6489  0.3145
 1254SOL    HW1 3581   1.481   4.345   3.331 -1.3994  1.1642 -0.9452
 1254SOL    HW2 3582   1.389   4.232   3.406 -1.2021  0.7381 -1.3368
 1255SOL     OW 3583   0.408   2.668   4.636 -0.4245 -0.4313  0.2821
 1255SOL    HW1 3584   0.449   2.696   4.550  1.4322  0.7695  1.4837
 1255SOL    HW2 3585   0.310   2.653   4.623 -0.3937  0.7980 -1.7770
 1256SOL     OW 3586   5.020   3.179   0.438 -0.4181  0.3767  0.2831
 1256SOL    HW1 3587   5.051   3.085   0.437 -0.7695  0.2374  1.2135
 1256SOL    HW2 3588   5.040   3.222   0.350 -0.6626 -0.6899 -0.3121
 1257SOL     OW 3589   1.810   3.811   2.914  0.5130  0.0133 -0.3393
 1257SOL    HW1 3590   1.757   3.726   2.910 -1.2690  1.0107  1.1279
 1257SOL    HW2 3591   1.762   3.883   2.863 -0.2751  1.2662  2.0547
 1258SOL     OW 3592   1.461   4.729   4.959  0.1083 -0.2942  0.3018
 1258SOL    HW1 3593   1.512   4.645   4.975  1.8503  0.1949 -2.1790
 1258SOL    HW2 3594   1.388   4.712   4.893  1.9681  0.4897 -2.1180
 1259SOL     OW 3595   0.655   2.618   3.727  0.4170 -0.3788  0.1614
 1259SOL    HW1 3596   0.589   2.549   3.756 -0.1288  0.4743  0.9854
 1259SOL    HW2 3597   0.744   2.599   3.767  0.2110 -0.4822  0.5688
 1260SOL     OW 3598   0.694   3.550   2.824  0.1450  0.2630  0.3480
 1260SOL    HW1 3599   0.664   3.461   2.859 -0.2974  0.7345  1.2095
 1260SOL    HW2 3600   0.757   3.592   2.890  2.0489 -0.3075 -1.0039
 1261SOL     OW 3601   2.331   1.861   1.497  0.5815  0.5669 -0.0424
 1261SOL    HW1 3602   2.375   1.902   1.577 -0.3833  0.8325  0.3725
 1261SOL    HW2 3603   2.246   1.911   1.477 -0.3964 -0.9342  0.1971
 1262SOL     OW 3604   0.857   3.673   2.988 -0.5572  0.3435  0.2080
 1262SOL    HW1 3605   0.808   3.756   3.013  0.5670  1.4166 -1.0100
 1262SOL    HW2 3606   0.942   3.697   2.942 -0.2777 -1.4982 -0.3247
 1263SOL     OW 3607   1.533   1.453   4.667 -0.1799  0.3952 -0.2078
 1263SOL    HW1 3608   1.628   1.474   4.645 -0.3709  0.8252 -0.6325
 1263SOL    HW2 3609   1.503   1.512   4.742  0.5374 -1.2173  1.4183
 1264SOL     OW 3610   1.227   1.252   4.796 -0.0621  0.7308  0.4156
 1264SOL    HW1 3611   1.167   1.191   4.846  1.2750 -1.4220 -0.4837
 1264SOL    HW2 3612   1.320   1.243   4.832  0.3434  1.4830 -0.4155
 1265SOL     OW 3613   1.373   3.150   3.634 -0.6458 -0.6823  0.2238
 1265SOL    HW1 3614   1.468   3.174   3.655 -0.8058 -0.1867  0.4022
 1265SOL    HW2 3615   1.350   3.064   3.679 -0.3374 -0.7071  0.3373
 1266SOL     OW 3616   1.562   3.292   2.703 -0.1843 -0.0720 -0.0430
 1266SOL    HW1 3617   1.566   3.389   2.678 -0.9193 -0.4004 -1.5759
 1266SOL    HW2 3618   1.654   3.259   2.724  0.4445  0.4222 -1.8231
 1267SOL     OW 3619   1.643   2.135   0.417  0.2573 -0.1381  0.4377
 1267SOL    HW1 3620   1.572   2.125   0.348  0.8364 -0.9659 -0.0648
 1267SOL    HW2 3621   1.617   2.206   0.482  0.9185  2.6999 -2.1624
 1268SOL     OW 3622   0.835   2.237   4.472 -0.3280 -0.0654  0.0763
 1268SOL    HW1 3623   0.782   2.320   4.454 -0.8479 -0.1114  1.3089
 1268SOL    HW2 3624   0.774   2.163   4.499  0.1934 -0.6916 -0.4164
 1269SOL     OW 3625   0.807   3.654   3.346  0.1911 -0.1166  0.0020
 1269SOL    HW1 3626   0.794   3.739   3.397  0.3260 -0.6654  0.9648
 1269SOL    HW2 3627   0.813   3.675   3.248  1.1115  1.0789  0.2850
 1270SOL     OW 3628   2.323   1.599   3.172  0.2538  0.4217 -0.0547
 1270SOL    HW1 3629   2.391   1.670   3.158 -0.5841  0.8788 -2.1072
 1270SOL    HW2 3630   2.238   1.640   3.207  0.2013  0.2352  0.0387
 1271SOL     OW 3631   2.077   1.239   3.998  0.2573 -0.1068  0.1458
 1271SOL    HW1 3632   1.982   1.210   3.985  0.3261 -0.0645 -0.4886
 1271SOL    HW2 3633   2.123   1.242   3.909  0.8697 -0.1864  0.4567
 1272SOL     OW 3634   0.846   1.623   4.701 -0.2056 -0.0920 -0.3441
 1272SOL    HW1 3635   0.925   1.579   4.744  0.0591  0.3330 -0.3963
 1272SOL    HW2 3636   0.851   1.609   4.602 -0.6726 -0.8359 -0.2745
 1273SOL     OW 3637   0.419   2.810   3.838  0.2585  0.7326 -0.0311
 1273SOL    HW1 3638   0.372   2.863   3.768 -0.8203 -0.9308 -0.6165
 1273SOL    HW2 3639   0.517   2.804   3.815  0.3318  2.0982 -0.1457
 1274SOL     OW 3640   0.266   4.875   3.826 -0.4768  0.0112 -0.0222
 1274SOL    HW1 3641   0.348   4.869   3.884 -0.8309 -0.4576  0.4372
 1274SOL    HW2 3642   0.214   4.956   3.851  0.0746  0.5679 -0.6289
 1275SOL     OW 3643   0.648   3.702   4.272  0.0392 -0.3985 -0.2841
 1275SOL    HW1 3644   0.617   3.609   4.252  0.4801 -0.4513 -0.7244
 1275SOL    HW2 3645   0.608   3.766   4.206 -0.3318 -0.2616  0.0698
 1276SOL     OW 3646   3.833   4.831   0.093 -0.4355 -0.9084 -0.0386
 1276SOL    HW1 3647   3.879   4.805   0.008 -0.3348 -0.3124 -0.1696
 1276SOL    HW2 3648   3.805   4.748   0.142 -0.3721 -1.2575 -0.5818
 1277SOL     OW 3649   0.080   0.411   0.957  0.6586 -0.0028 -0.0654
 1277SOL    HW1 3650   0.083   0.315   0.932  0.1268  0.1948 -0.9191
 1277SOL    HW2 3651   0.090   0.468   0.875 -3.2863  0.6687 -0.2468
 1278SOL     OW 3652   4.649   0.341   0.611 -0.9178 -0.0502  0.0975
 1278SOL    HW1 3653   4.742   0.357   0.577 -1.4080 -0.0222 -1.3164
 1278SOL    HW2 3654   4.652   0.328   0.710  0.9615 -2.7594 -0.1983
 1279SOL     OW 3655   0.610   2.062   0.094  0.1786  0.2953  0.2347
 1279SOL    HW1 3656   0.593   1.991   0.026 -1.0924  0.5170  0.2997
 1279SOL    HW2 3657   0.538   2.060   0.163  0.5255  1.1844  0.6429
 1280SOL     OW 3658   1.965   0.954   1.787 -0.2456 -0.4758 -0.0868
 1280SOL    HW1 3659   2.034   0.901   1.737 -1.0999  0.5837 -2.6013
 1280SOL    HW2 3660   1.886   0.896   1.806 -0.0544 -0.8264 -0.3417
 1281SOL     OW 3661   1.986   0.306   0.530 -0.3933  0.3243  0.6104
 1281SOL    HW1 3662   2.027   0.363   0.602  1.2449 -0.0820  0.0410
 1281SOL    HW2 3663   2.058   0.253   0.485 -1.8075 -1.8317  0.7715
 1282SOL     OW 3664   0.737   0.148   2.341 -0.3725 -0.5265  0.4445
 1282SOL    HW1 3665   0.754   0.211   2.265  0.0493 -0.7202  0.3812
 1282SOL    HW2 3666   0.823   0.107   2.372 -0.5595 -0.5678  0.9254
 1283SOL     OW 3667   0.246   4.802   2.233 -0.1524 -0.0910 -0.4479
 1283SOL    HW1 3668   0.288   4.759   2.153 -1.3738  1.7736 -2.1570
 1283SOL    HW2 3669   0.292   4.889   2.252 -1.7160  0.8951 -0.9759
 1284SOL     OW 3670   1.597   3.943   0.738  0.1936  0.0002  0.2718
 1284SOL    HW1 3671   1.610   3.916   0.643 -0.7414  0.2189  0.0806
 1284SOL    HW2 3672   1.619   3.865   0.798 -1.1116 -0.7626 -0.2119
 1285SOL     OW 3673   0.725   0.158   1.118  0.0050 -0.4001  0.2279
 1285SOL    HW1 3674   0.625   0.153   1.121  0.0069 -2.2017 -1.2606
 1285SOL    HW2 3675   0.752   0.250   1.089 -1.2704 -0.3318 -0.8504
 1286SOL     OW 3676   0.487   0.317   1.171 -0.4171 -0.3054  0.1252
 1286SOL    HW1 3677   0.527   0.344   1.083  0.8800 -0.7684  0.5524
 1286SOL    HW2 3678   0.397   0.359   1.181 -0.9418 -0.8771 -1.7822
 1287SOL     OW 3679   0.139   4.142   1.958 -0.3689 -0.7405 -0.2589
 1287SOL    HW1 3680   0.138   4.225   2.013 -0.0544 -0.1837 -1.0863
 1287SOL    HW2 3681   0.078   4.074   2.001 -0.5989 -0.1137  0.4422
 1288SOL     OW 3682   1.340   3.453   1.010  0.4955  0.3640  0.1971
 1288SOL    HW1 3683   1.271   3.524   1.003  1.0868  0.7854 -2.2463
 1288SOL    HW2 3684   1.326   3.384   0.939  0.2026 -1.8107  2.2128
 1289SOL     OW 3685   1.850   0.647   2.228  0.5847  0.1400 -0.1938
 1289SOL    HW1 3686   1.910   0.579   2.269 -0.2545  0.2240  1.2408
 1289SOL    HW2 3687   1.798   0.693   2.300  0.0887  1.2941 -1.2559
 1290SOL     OW 3688   0.903   4.248   4.788  0.0238  0.0658  0.2221
 1290SOL    HW1 3689   0.977   4.275   4.849  0.5792 -1.3757  0.2386
 1290SOL    HW2 3690   0.941   4.208   4.705 -0.6944 -1.4571  0.5800
 1291SOL     OW 3691   1.538   3.537   1.856 -0.3450 -0.1076  0.4693
 1291SOL    HW1 3692   1.587   3.495   1.932  1.1359  0.6762  0.0051
 1291SOL    HW2 3693   1.459   3.482   1.832  0.7291 -1.8565  0.7842
 1292SOL     OW 3694   4.825   4.400   0.465 -0.7132 -0.3462  0.2646
 1292SOL    HW1 3695   4.764   4.433   0.537  0.0271  2.0693 -0.1312
 1292SOL    HW2 3696   4.796   4.437   0.377  1.2056  0.7543  0.0462
 1293SOL     OW 3697   1.965   0.204   1.420 -0.0053 -0.0601  0.1618
 1293SOL    HW1 3698   1.875   0.236   1.389 -0.5323 -0.6002  1.0953
 1293SOL    HW2 3699   2.025   0.193   1.341 -0.8100  0.1593 -0.4958
 1294SOL     OW 3700   1.260   4.713   0.540  0.1432  0.1512  0.3130
 1294SOL    HW1 3701   1.182   4.757   0.585  0.1613  0.2109  0.2856
 1294SOL    HW2 3702   1.320   4.673   0.610  2.9168  4.5678  0.8500
 1295SOL     OW 3703   1.118   0.592   2.141 -0.4741  0.2271 -0.9886
 1295SOL    HW1 3704   1.071   0.515   2.184 -0.1862  0.5862 -0.0027
 1295SOL    HW2 3705   1.086   0.678   2.181  0.6976  0.4989 -0.5958
 1296SOL     OW 3706   1.323   4.458   2.279 -0.0274  0.0277 -0.0681
 1296SOL    HW1 3707   1.305   4.507   2.365  0.1253 -0.7025  0.3838
 1296SOL    HW2 3708   1.274   4.504   2.204  0.4536  1.1289  0.2649
 1297SOL     OW 3709   1.559   3.137   1.165 -0.5668  0.1235 -0.2238
 1297SOL    HW1 3710   1.526   3.060   1.110 -0.1014  0.4402 -0.9512
 1297SOL    HW2 3711   1.537   3.120   1.261 -1.8018 -0.2298 -0.5396
 1298SOL     OW 3712   1.527   0.525   1.774  0.4017  0.3243 -0.2967
 1298SOL    HW1 3713   1.584   0.511   1.854  0.9874  0.4782 -0.6762
 1298SOL    HW2 3714   1.465   0.602   1.789  1.1426  0.9382 -0.3249
 1299SOL     OW 3715   1.218   3.804   1.283  0.5174  0.9238  0.4980
 1299SOL    HW1 3716   1.294   3.749   1.249  0.3265  2.5645 -3.0299
 1299SOL    HW2 3717   1.142   3.744   1.307  0.7315 -0.5467 -2.0744
 1300SOL     OW 3718   4.742   4.773   2.318  0.2405  0.3553 -0.1263
 1300SOL    HW1 3719   4.727   4.795   2.414  0.3997  0.5779 -0.1508
 1300SOL    HW2 3720   4.665   4.805   2.264  0.8007  1.5430 -0.2608
 1301SOL     OW 3721   1.551   4.675   0.617  0.3969  0.0404  0.6957
 1301SOL    HW1 3722   1.648   4.675   0.590  0.2642  3.1841 -0.1944
 1301SOL    HW2 3723   1.533   4.754   0.675 -1.8352 -0.0362  0.1747
 1302SOL     OW 3724   4.684   1.521   1.109  0.1015 -0.2507 -0.3762
 1302SOL    HW1 3725   4.772   1.545   1.067  0.9113 -1.2741  0.6334
 1302SOL    HW2 3726   4.644   1.602   1.151 -0.5509  0.7036 -2.7268
 1303SOL     OW 3727   4.757   5.079   0.685  0.0136  0.5044  0.5842
 1303SOL    HW1 3728   4.692   5.098   0.611  1.2594  2.9209 -0.0005
 1303SOL    HW2 3729   4.797   4.989   0.672  0.0567  0.7873 -1.5910
 1304SOL     OW 3730   1.497   3.189   1.694 -0.1712  0.0577 -0.5427
 1304SOL    HW1 3731   1.477   3.116   1.759 -1.1379 -0.5763 -1.5019
 1304SOL    HW2 3732   1.432   3.263   1.705 -0.5451 -0.1971 -0.9839
 1305SOL     OW 3733   1.902   3.671   0.661  0.3328  0.2414  0.0108
 1305SOL    HW1 3734   1.902   3.743   0.730 -2.2328  0.4890 -0.1590
 1305SOL    HW2 3735   1.936   3.707   0.574  1.7496  0.4384  0.6176
 1306SOL     OW 3736   1.541   4.762   2.532  0.2829 -0.0330  0.5844
 1306SOL    HW1 3737   1.462   4.762   2.594  0.5208 -0.3432  0.8909
 1306SOL    HW2 3738   1.510   4.760   2.438 -0.0840  0.3581  0.6928
 1307SOL     OW 3739   0.264   4.833   0.674  0.1205 -0.2432  0.2939
 1307SOL    HW1 3740   0.189   4.790   0.624 -0.2671  0.8717 -0.1134
 1307SOL    HW2 3741   0.342   4.770   0.677 -0.9131 -1.5603  1.0189
 1308SOL     OW 3742   5.029   4.191   0.839  0.1294  0.1477  0.2811
 1308SOL    HW1 3743   5.014   4.156   0.932 -0.4573  1.9490  0.9007
 1308SOL    HW2 3744   4.942   4.191   0.789 -0.0962  1.5893  0.6298
 1309SOL     OW 3745   4.502   0.104   0.186 -0.2439 -0.1854 -0.1462
 1309SOL    HW1 3746   4.498   0.171   0.261  0.5000 -0.6053  0.2783
 1309SOL    HW2 3747   4.473   0.148   0.101 -1.0530  0.3162  0.3751
 1310SOL     OW 3748   4.513   0.094   4.321  0.2102 -0.3530 -0.2680
 1310SOL    HW1 3749   4.420   0.070   4.294 -0.3442  0.8000  0.5062
 1310SOL    HW2 3750   4.510   0.176   4.379  1.5897 -1.0675  0.8647
 1311SOL     OW 3751   1.293   3.559   0.617  0.0159  0.2189  0.1074
 1311SOL    HW1 3752   1.270   3.653   0.642 -0.2414 -0.2986  1.8810
 1311SOL    HW2 3753   1.379   3.533   0.661 -0.4303 -0.7097  0.4345
 1312SOL     OW 3754   0.729   0.333   2.137 -0.3852 -0.0153  0.0462
 1312SOL    HW1 3755   0.658   0.400   2.160  0.6129  1.9374 -2.1453
 1312SOL    HW2 3756   0.725   0.312   2.040  2.5611  0.9340 -0.3930
 1313SOL     OW 3757   1.233   4.274   1.140 -0.1771  0.0545  0.5726
 1313SOL    HW1 3758   1.307   4.231   1.089  1.6110  1.5226  1.8020
 1313SOL    HW2 3759   1.145   4.244   1.102  1.0087 -1.1497 -1.4361
 1314SOL     OW 3760   1.490   4.010   0.089  0.1037 -0.0539 -0.2079
 1314SOL    HW1 3761   1.578   3.979   0.123 -0.8346 -0.6143  1.9110
 1314SOL    HW2 3762   1.438   4.052   0.164 -0.6968  2.0638 -1.8347
 1315SOL     OW 3763   0.276   4.036   0.887 -0.6044  0.3917  0.3671
 1315SOL    HW1 3764   0.242   4.056   0.795  1.7121 -1.7916 -1.1052
 1315SOL    HW2 3765   0.244   3.946   0.916 -1.2497  1.0263  1.7186
 1316SOL     OW 3766   1.334   4.770   1.287  0.4654  0.1390 -0.0891
 1316SOL    HW1 3767   1.299   4.840   1.349 -0.8057  0.6041 -1.2957
 1316SOL    HW2 3768   1.345   4.684   1.338 -0.2555  0.5792  0.8561
 1317SOL     OW 3769   0.657   4.030   1.311  0.0900 -0.6434 -0.5257
 1317SOL    HW1 3770   0.701   4.108   1.266 -0.8652  0.2776  0.0712
 1317SOL    HW2 3771   0.596   4.064   1.382 -1.7942 -1.8226 -1.4911
 1318SOL     OW 3772   1.777   4.625   0.110 -0.1985 -0.7880  0.0553
 1318SOL    HW1 3773   1.842   4.608   0.184 -0.6346  1.0253  0.9151
 1318SOL    HW2 3774   1.802   4.710   0.064 -1.7048 -0.2958  0.1172
 1319SOL     OW 3775   1.891   2.170   0.356 -0.0313 -0.1757  0.7340
 1319SOL    HW1 3776   1.951   2.094   0.383 -2.1593 -1.7660  1.3045
 1319SOL    HW2 3777   1.797   2.149   0.384 -1.0747  1.6586 -1.1264
 1320SOL     OW 3778   0.017   4.820   0.910  0.3112 -0.2111  0.2488
 1320SOL    HW1 3779   0.060   4.865   0.832  0.4108 -0.2056  0.3060
 1320SOL    HW2 3780  -0.041   4.746   0.878  2.2589 -1.8471  0.2471
 1321SOL     OW 3781   0.871   3.105   2.302 -0.1857  0.1869  0.7229
 1321SOL    HW1 3782   0.822   3.098   2.215  0.5118 -1.5751  0.4279
 1321SOL    HW2 3783   0.881   3.201   2.327 -1.3929  0.6840 -0.5579
 1322SOL     OW 3784   0.642   4.823   2.041 -0.4482  0.3739  0.0242
 1322SOL    HW1 3785   0.654   4.763   2.120 -0.3038  0.5116  0.1078
 1322SOL    HW2 3786   0.567   4.887   2.059 -0.3899  0.4306  0.0653
 1323SOL     OW 3787   4.897   3.850   0.848  0.1308 -0.0353  0.1744
 1323SOL    HW1 3788   4.955   3.863   0.929  0.9589  0.4776 -0.4873
 1323SOL    HW2 3789   4.953   3.820   0.771 -0.6394 -0.4413 -0.2419
 1324SOL     OW 3790   1.025   0.105   1.722 -0.4344 -0.3687  0.6762
 1324SOL    HW1 3791   0.977   0.166   1.785 -0.6820  0.8191 -0.6123
 1324SOL    HW2 3792   0.959   0.040   1.682 -0.6506  0.1359  0.2028
 1325SOL     OW 3793   1.765   3.961   0.186 -0.0200  0.2670 -0.1118
 1325SOL    HW1 3794   1.836   3.894   0.163 -0.1640  0.4301 -1.0744
 1325SOL    HW2 3795   1.803   4.053   0.179 -0.1205  0.3301  0.1510
 1326SOL     OW 3796   4.949   0.181   4.923 -0.2379 -0.8104  0.7476
 1326SOL    HW1 3797   4.976   0.089   4.895 -0.5347 -1.7552  3.2799
 1326SOL    HW2 3798   4.853   0.196   4.898 -0.8033 -2.0129  2.0138
 1327SOL     OW 3799   2.798   4.957   1.892 -0.5726  0.1989 -0.0434
 1327SOL    HW1 3800   2.802   4.877   1.832  0.2227 -1.2639  1.8733
 1327SOL    HW2 3801   2.872   5.020   1.868 -1.6304  0.7924 -2.0309
 1328SOL     OW 3802   0.263   3.765   4.741 -0.1199 -0.1066 -0.0291
 1328SOL    HW1 3803   0.263   3.792   4.645  0.9130  0.5089  0.1356
 1328SOL    HW2 3804   0.276   3.666   4.748 -0.5660 -0.2018 -0.5297
 1329SOL     OW 3805   0.202   3.949   1.788  0.4099 -0.2617  0.4222
 1329SOL    HW1 3806   0.123   3.977   1.735  0.8767  0.7639  0.2448
 1329SOL    HW2 3807   0.236   4.026   1.842  2.2881 -0.1722 -0.7762
 1330SOL     OW 3808   1.485   0.003   1.553  0.0014  0.7635 -0.3041
 1330SOL    HW1 3809   1.467   0.027   1.458  0.4175  1.4876 -0.2051
 1330SOL    HW2 3810   1.404   0.024   1.608 -0.5058 -0.3335 -0.6030
 1331SOL     OW 3811   1.450   0.612   4.992  0.1944 -0.3737 -0.9350
 1331SOL    HW1 3812   1.371   0.631   5.051  2.1063  1.1586  1.2745
 1331SOL    HW2 3813   1.474   0.515   4.998  0.7007 -0.1491  1.3579
 1332SOL     OW 3814   0.259   0.077   0.530 -0.0578  0.0286  0.2412
 1332SOL    HW1 3815   0.273   0.056   0.627  0.6362 -1.9170 -0.2176
 1332SOL    HW2 3816   0.274   0.174   0.514 -0.0929  0.3714  2.0569
 1333SOL     OW 3817   4.760   4.393   0.841  0.0559  0.9627 -0.8500
 1333SOL    HW1 3818   4.859   4.394   0.857  0.0262 -1.1711 -0.2842
 1333SOL    HW2 3819   4.738   4.454   0.764  1.6395  2.3675 -0.2511
 1334SOL     OW 3820   0.275   4.044   0.343 -0.6136  0.1518 -0.5508
 1334SOL    HW1 3821   0.279   4.077   0.249  2.5628  0.4961 -0.4117
 1334SOL    HW2 3822   0.244   4.119   0.402 -0.1290  0.7726 -1.0557
 1335SOL     OW 3823   1.056   3.805   2.882  0.1913 -0.0650 -0.6175
 1335SOL    HW1 3824   1.091   3.777   2.793 -1.6047 -1.8026 -0.8540
 1335SOL    HW2 3825   1.032   3.902   2.879  0.5028 -0.0093 -1.9117
 1336SOL     OW 3826   1.287   4.171   0.796 -0.1198 -0.3275 -0.0996
 1336SOL    HW1 3827   1.328   4.249   0.843 -2.4555  1.7221 -1.2559
 1336SOL    HW2 3828   1.356   4.099   0.784  1.8070  1.0335  2.0359
 1337SOL     OW 3829   1.645   4.451   1.188  0.5824 -1.0149  0.1447
 1337SOL    HW1 3830   1.638   4.531   1.128  0.4868  0.6013  2.1865
 1337SOL    HW2 3831   1.742   4.428   1.201  0.8776  1.0986  2.3378
 1338SOL     OW 3832   3.424   0.077   1.981  0.1143 -0.5574  0.7492
 1338SOL    HW1 3833   3.463   0.077   2.073 -1.7041 -0.9799  1.5607
 1338SOL    HW2 3834   3.401  -0.016   1.954  1.2890 -0.5179 -0.4430
 1339SOL     OW 3835   0.142   4.091   0.668 -0.2982 -0.5694  0.3236
 1339SOL    HW1 3836   0.057   4.112   0.716 -1.0202 -1.2157 -0.6373
 1339SOL    HW2 3837   0.144   4.142   0.582  0.6580  0.0367  0.6926
 1340SOL     OW 3838   2.164   0.210   1.221  0.0376 -0.3911  0.3543
 1340SOL    HW1 3839   2.230   0.208   1.296  1.1085 -1.2257 -0.5757
 1340SOL    HW2 3840   2.139   0.305   1.200  0.0257 -0.1370  1.4915
 1341SOL     OW 3841   1.883   0.072   0.120  0.1692  0.2138 -0.3084
 1341SOL    HW1 3842   1.924   0.162   0.107 -2.0416  1.3281 -0.1704
 1341SOL    HW2 3843   1.791   0.071   0.079 -0.4299 -1.5207  0.9376
 1342SOL     OW 3844   2.066   4.415   0.538  0.3172  1.0652  0.0560
 1342SOL    HW1 3845   2.159   4.452   0.542  0.7026  0.0240  1.6573
 1342SOL    HW2 3846   2.020   4.429   0.625  0.3219 -1.6613  0.5965
 1343SOL     OW 3847   0.396   3.646   1.109 -0.0199 -0.2844 -0.2548
 1343SOL    HW1 3848   0.426   3.551   1.106 -0.3034 -0.3560 -2.0153
 1343SOL    HW2 3849   0.467   3.702   1.152  0.8618 -1.0591 -0.6641
 1344SOL     OW 3850   2.027   4.600   1.433  0.3204 -0.4766 -0.5833
 1344SOL    HW1 3851   1.982   4.682   1.399  0.4542 -0.8488 -1.6967
 1344SOL    HW2 3852   1.960   4.526   1.440  0.3006 -0.4123 -0.0493
 1345SOL     OW 3853   2.097   0.012   1.717  0.3595 -0.3571  0.3055
 1345SOL    HW1 3854   2.068  -0.019   1.808  1.6765  1.1633  1.2942
 1345SOL    HW2 3855   2.194  -0.008   1.704  0.7501  1.4472  0.1757
 1346SOL     OW 3856   0.341   4.853   1.667 -0.1175  0.1424  0.4109
 1346SOL    HW1 3857   0.341   4.934   1.609 -1.3414  1.5277  2.2536
 1346SOL    HW2 3858   0.436   4.828   1.689  0.2870  2.8037  2.0647
 1347SOL     OW 3859   2.187   1.694   2.508 -0.2257 -0.5849  0.0341
 1347SOL    HW1 3860   2.112   1.655   2.453 -0.1694 -0.9832  0.2322
 1347SOL    HW2 3861   2.264   1.631   2.508  0.1198 -0.1653 -0.1812
 1348SOL     OW 3862   1.528   4.898   0.757 -0.7345  0.2132  0.6293
 1348SOL    HW1 3863   1.457   4.960   0.722 -0.4455  0.3684  0.3079
 1348SOL    HW2 3864   1.514   4.884   0.855 -0.7113  0.9233  0.7414
 1349SOL     OW 3865   1.116   4.264   2.181 -0.4212 -0.2277 -0.6011
 1349SOL    HW1 3866   1.123   4.283   2.084  1.0290 -0.2741 -0.5187
 1349SOL    HW2 3867   1.205   4.275   2.225 -1.0177 -0.3314  0.7045
 1350SOL     OW 3868   1.470   4.461   0.481  0.7137  0.4414 -0.0126
 1350SOL    HW1 3869   1.501   4.542   0.531 -1.0463  1.8983 -1.1708
 1350SOL    HW2 3870   1.503   4.466   0.387  0.3587 -0.0556 -0.1666
 1351SOL     OW 3871   0.817   4.842   0.542  0.3087  0.4371  0.4760
 1351SOL    HW1 3872   0.821   4.882   0.451 -1.3861  1.4633  0.7946
 1351SOL    HW2 3873   0.770   4.754   0.538  0.9657  0.0973  0.2471
 1352SOL     OW 3874   0.501   0.046   2.445  0.1210  0.0794  0.0792
 1352SOL    HW1 3875   0.457  -0.013   2.377  0.3068  0.0171  0.0113
 1352SOL    HW2 3876   0.580   0.092   2.403 -0.5686  1.0915 -0.1201
 1353SOL     OW 3877   0.801   0.520   1.438 -0.2137  0.1653 -0.1516
 1353SOL    HW1 3878   0.872   0.488   1.500 -2.1653 -0.7252  1.7628
 1353SOL    HW2 3879   0.843   0.556   1.354  2.4536  0.1158  1.0636
 1354SOL     OW 3880   0.395   2.747   0.018  0.0684 -0.1115  0.0688
 1354SOL    HW1 3881   0.380   2.682  -0.056  0.5715 -0.0460 -0.0934
 1354SOL    HW2 3882   0.493   2.751   0.039  0.1230  1.0934 -0.3717
 1355SOL     OW 3883   1.170   3.073   1.154  0.5475  0.6358 -0.0452
 1355SOL    HW1 3884   1.182   2.975   1.140  0.1229  0.4265  1.0102
 1355SOL    HW2 3885   1.093   3.089   1.215  0.5409  1.6399 -0.2970
 1356SOL     OW 3886   1.537   3.479   1.395  0.4558 -0.7587  0.0705
 1356SOL    HW1 3887   1.544   3.381   1.378  0.3236 -1.1880  2.1585
 1356SOL    HW2 3888   1.521   3.494   1.493  1.1171  1.3742 -0.1065
 1357SOL     OW 3889   1.303   3.884   2.208  0.6176  0.5982 -0.6632
 1357SOL    HW1 3890   1.237   3.889   2.134  0.5207 -0.3910 -0.6500
 1357SOL    HW2 3891   1.392   3.917   2.176  0.6067  0.0538 -1.2532
 1358SOL     OW 3892   4.668   0.163   1.960  0.3075  0.0778  0.2074
 1358SOL    HW1 3893   4.745   0.227   1.962 -0.1760  0.6431  1.4401
 1358SOL    HW2 3894   4.697   0.078   1.916  1.6771  0.2183  0.7888
 1359SOL     OW 3895   1.930   4.246   0.912 -0.0231  0.0056  0.8495
 1359SOL    HW1 3896   1.991   4.177   0.950  0.3430  0.3716  0.9244
 1359SOL    HW2 3897   1.836   4.211   0.913  0.3472 -1.1296 -0.5797
 1360SOL     OW 3898   0.454   0.065   0.001 -0.0889 -0.5875 -0.1431
 1360SOL    HW1 3899   0.413   0.157   0.002 -3.2559 -1.8021 -2.2673
 1360SOL    HW2 3900   0.523   0.060  -0.072  1.7707  0.6240  1.4370
 1361SOL     OW 3901   4.778   4.803   4.841  0.1827 -0.1924 -0.5051
 1361SOL    HW1 3902   4.701   4.746   4.871  1.3287 -1.1767  0.6978
 1361SOL    HW2 3903   4.816   4.765   4.756  0.7433 -1.0668  0.1218
 1362SOL     OW 3904   4.070   4.439   2.505 -0.2713  0.2105 -0.1555
 1362SOL    HW1 3905   4.078   4.534   2.534 -0.4524  0.2835 -0.3477
 1362SOL    HW2 3906   4.145   4.416   2.442  0.7899 -0.2638  1.2107
 1363SOL     OW 3907   0.000   4.532   1.354 -0.5889 -0.7206  0.2761
 1363SOL    HW1 3908  -0.029   4.627   1.357 -0.3339 -0.6327  0.0279
 1363SOL    HW2 3909   0.098   4.526   1.376 -0.1196 -0.7035 -1.6326
 1364SOL     OW 3910   2.853   0.358   1.561 -0.1519 -0.0529  0.2655
 1364SOL    HW1 3911   2.764   0.316   1.581  0.2797 -0.4130  1.5112
 1364SOL    HW2 3912   2.896   0.387   1.647  0.0337  2.0032 -0.4664
 1365SOL     OW 3913   0.430   4.745   0.115 -0.1874  0.6346  0.2087
 1365SOL    HW1 3914   0.387   4.716   0.201 -2.3888  1.6242 -0.4824
 1365SOL    HW2 3915   0.391   4.834   0.088 -0.2216 -0.0771 -2.2644
 1366SOL     OW 3916   2.425   4.111   0.412  0.1695 -0.4977  0.1755
 1366SOL    HW1 3917   2.521   4.122   0.436 -0.1796  0.8084  1.0991
 1366SOL    HW2 3918   2.375   4.072   0.489 -0.5988  1.9056  1.0107
 1367SOL     OW 3919   0.772   3.801   4.009  0.2953  0.1299 -0.0415
 1367SOL    HW1 3920   0.794   3.864   4.084 -1.4954 -0.7771  1.3174
 1367SOL    HW2 3921   0.694   3.837   3.958  1.1389  0.4458 -1.1376
 1368SOL     OW 3922   1.912   5.044   1.518 -0.3679  0.8655 -0.0634
 1368SOL    HW1 3923   1.986   5.028   1.583 -0.3387  1.2811  0.0135
 1368SOL    HW2 3924   1.927   5.131   1.471 -0.5724  0.7347 -0.3724
 1369SOL     OW 3925   4.290   5.020   2.342  0.1620  0.3533  0.2373
 1369SOL    HW1 3926   4.279   4.925   2.313 -1.9445  0.3447  0.9430
 1369SOL    HW2 3927   4.265   5.081   2.267 -0.5144  0.3323  0.4387
 1370SOL     OW 3928   2.169   4.536   4.717  0.2782 -0.2624  0.2974
 1370SOL    HW1 3929   2.218   4.613   4.676  0.6572 -0.5953  0.1213
 1370SOL    HW2 3930   2.119   4.568   4.798 -1.2789  0.6007 -0.9497
 1371SOL     OW 3931   0.337   0.371   0.513 -0.4764 -0.4698  0.4585
 1371SOL    HW1 3932   0.310   0.419   0.597 -0.1327 -1.0244  0.8921
 1371SOL    HW2 3933   0.434   0.347   0.518 -0.6214 -1.1299  0.2194
 1372SOL     OW 3934   0.612   4.887   1.780  0.8052 -0.1764 -0.6426
 1372SOL    HW1 3935   0.629   4.856   1.874  0.9842  1.1739 -0.2075
 1372SOL    HW2 3936   0.612   4.809   1.718 -0.4624 -1.2473  0.6374
 1373SOL     OW 3937   0.877   4.941   1.375 -0.4794 -0.1052 -0.6476
 1373SOL    HW1 3938   0.792   4.889   1.382 -0.5976  0.0813 -0.7044
 1373SOL    HW2 3939   0.953   4.885   1.410 -0.7719  0.0808  0.3171
 1374SOL     OW 3940   0.032   4.962   1.698 -0.1671 -0.0572  0.2450
 1374SOL    HW1 3941   0.063   4.909   1.776  0.1277  0.5376  0.5317
 1374SOL    HW2 3942   0.104   4.966   1.629 -0.9369 -1.8567 -0.7435
 1375SOL     OW 3943   1.383   2.702   2.153  0.5938  0.4600  0.6724
 1375SOL    HW1 3944   1.414   2.746   2.068 -0.2782  1.3374  0.7879
 1375SOL    HW2 3945   1.450   2.634   2.182  1.4409  0.9389 -0.1196
 1376SOL     OW 3946   3.909   4.793   1.211  0.1154 -0.5783 -0.4630
 1376SOL    HW1 3947   3.882   4.853   1.285  0.5813  0.3936 -1.0658
 1376SOL    HW2 3948   3.865   4.703   1.223 -1.8804  0.3570 -0.4145
 1377SOL     OW 3949   0.688   3.750   0.910 -0.1398 -0.3211 -0.1006
 1377SOL    HW1 3950   0.607   3.717   0.861  0.0954  0.4771 -1.0595
 1377SOL    HW2 3951   0.714   3.840   0.874 -0.7453  0.9459  2.4114
 1378SOL     OW 3952   3.837   4.933   1.420  0.3868  0.3323  0.1402
 1378SOL    HW1 3953   3.767   4.999   1.448 -0.2767  0.0713 -0.8405
 1378SOL    HW2 3954   3.810   4.842   1.452 -0.6308 -0.0508 -1.6876
 1379SOL     OW 3955   4.551   4.614   2.171 -0.2075  0.2932 -0.0123
 1379SOL    HW1 3956   4.537   4.515   2.171 -1.8497  0.4920  0.3677
 1379SOL    HW2 3957   4.610   4.639   2.094 -1.3897 -0.7959 -1.3494
 1380SOL     OW 3958   1.700   3.738   1.328 -0.3006  0.1510  0.0727
 1380SOL    HW1 3959   1.620   3.695   1.287 -1.9724  0.1577  2.9792
 1380SOL    HW2 3960   1.673   3.825   1.370  1.8594  1.4806 -1.1282
 1381SOL     OW 3961   0.371   3.839   5.062 -0.4568  0.5851  0.1293
 1381SOL    HW1 3962   0.417   3.860   4.975 -0.7148 -2.0452 -0.7140
 1381SOL    HW2 3963   0.437   3.850   5.137  0.5308  0.3488 -0.6747
 1382SOL     OW 3964   0.254   0.492   1.247 -1.0205  0.2957 -0.5149
 1382SOL    HW1 3965   0.184   0.477   1.176 -0.3410 -0.8718 -0.9668
 1382SOL    HW2 3966   0.212   0.482   1.337 -1.4253 -0.5878 -0.7828
 1383SOL     OW 3967   0.418   3.836   1.653  0.1678 -0.3283  0.0762
 1383SOL    HW1 3968   0.328   3.876   1.672  0.8332  0.5332  1.6529
 1383SOL    HW2 3969   0.410   3.767   1.582 -1.6451  0.1121 -0.1888
 1384SOL     OW 3970   1.663   3.449   5.020 -0.1240 -0.5145 -0.2238
 1384SOL    HW1 3971   1.649   3.359   5.062  0.0342 -0.4582 -0.0492
 1384SOL    HW2 3972   1.584   3.471   4.962 -0.3054 -0.6312 -0.0233
 1385SOL     OW 3973   0.462   3.661   1.440  0.5238  0.2792  0.0385
 1385SOL    HW1 3974   0.413   3.727   1.383 -0.8845 -0.2821  0.5525
 1385SOL    HW2 3975   0.485   3.581   1.385  1.6636  0.9038 -0.4224
 1386SOL     OW 3976   0.760   4.761   0.801 -0.1041 -0.1643  0.1737
 1386SOL    HW1 3977   0.740   4.834   0.866 -1.0091  0.2401 -0.5371
 1386SOL    HW2 3978   0.783   4.800   0.712  1.0643 -0.7110  0.2199
 1387SOL     OW 3979   1.564   4.534   0.227  0.0375 -0.2157 -0.0114
 1387SOL    HW1 3980   1.650   4.567   0.187  0.6626  0.0250  1.4460
 1387SOL    HW2 3981   1.511   4.611   0.261 -0.8025 -0.3607 -0.9361
 1388SOL     OW 3982   0.213   3.777   0.923 -0.4067  0.3549  0.0578
 1388SOL    HW1 3983   0.149   3.708   0.888 -0.5550  0.9666 -0.9159
 1388SOL    HW2 3984   0.294   3.732   0.960 -0.7171 -0.3628 -0.1167
 1389SOL     OW 3985   1.049   2.034   3.322  0.0832  0.0762 -0.0241
 1389SOL    HW1 3986   1.010   1.949   3.286  0.4576 -0.1790  0.1606
 1389SOL    HW2 3987   1.098   2.082   3.249  0.6861 -0.3492  0.0894
 1390SOL     OW 3988   1.832   2.633   0.912  0.1919  0.7090  0.2254
 1390SOL    HW1 3989   1.859   2.729   0.906 -1.2750  1.1104 -0.4459
 1390SOL    HW2 3990   1.788   2.606   0.826  0.2683 -0.4680  0.5420
 1391SOL     OW 3991   0.231   3.021   3.993 -0.0561 -0.3018  0.3654
 1391SOL    HW1 3992   0.145   2.993   4.037 -0.9882  1.7429 -0.0850
 1391SOL    HW2 3993   0.227   2.999   3.896  0.4454 -1.2967  0.5561
 1392SOL     OW 3994   4.717   4.624   1.939  0.2178 -0.7168  0.0834
 1392SOL    HW1 3995   4.811   4.659   1.940  0.0603 -0.3057  1.2437
 1392SOL    HW2 3996   4.711   4.548   1.874  0.7231  0.9465 -2.0280
 1393SOL     OW 3997   1.693   3.290   0.837 -0.1069 -0.3597 -0.2330
 1393SOL    HW1 3998   1.710   3.234   0.918 -0.2879  0.2104  0.2042
 1393SOL    HW2 3999   1.720   3.239   0.755 -0.4062 -1.1400  0.1431
 1394SOL     OW 4000   4.318   3.531   0.005 -0.4573 -0.0016  0.4225
 1394SOL    HW1 4001   4.219   3.548   0.002 -0.2091  1.5757 -0.1392
 1394SOL    HW2 4002   4.364   3.610   0.046  0.5993 -0.5600  0.3514
 1395SOL     OW 4003   0.008   0.245   2.449  0.4600  0.0092 -0.2993
 1395SOL    HW1 4004   0.071   0.232   2.526 -0.9188 -1.1781  0.6881
 1395SOL    HW2 4005   0.047   0.310   2.384  1.4990  1.3409  1.5806
 1396SOL     OW 4006   0.744   0.608   0.126  0.0083  0.4549 -0.5938
 1396SOL    HW1 4007   0.680   0.590   0.201  0.8756  0.9834  0.2852
 1396SOL    HW2 4008   0.693   0.610   0.039 -1.1408  0.7320  0.0661
 1397SOL     OW 4009   0.490   3.261   1.661  0.4560  0.0141 -0.2292
 1397SOL    HW1 4010   0.432   3.190   1.702 -0.3312  0.6773 -0.1659
 1397SOL    HW2 4011   0.467   3.350   1.701 -0.2545  0.6718 -1.9888
 1398SOL     OW 4012   1.827   4.624   0.599 -0.2916 -0.0963 -0.2267
 1398SOL    HW1 4013   1.836   4.594   0.694 -0.3302 -0.7333 -0.4246
 1398SOL    HW2 4014   1.886   4.568   0.541  0.2636  0.7440 -0.4886
 1399SOL     OW 4015   2.052   0.265   1.658  0.2131 -0.4934  0.0244
 1399SOL    HW1 4016   2.083   0.172   1.678  0.5077 -0.4201 -0.0851
 1399SOL    HW2 4017   2.014   0.268   1.565 -0.4657 -0.6661  0.2932
 1400SOL     OW 4018   0.977   4.408   0.996  0.5060 -0.2523  0.7367
 1400SOL    HW1 4019   0.899   4.460   0.961  0.7043 -0.7037 -0.3958
 1400SOL    HW2 4020   1.062   4.455   0.972  0.6123  0.0963  1.7350
 1401SOL     OW 4021   2.082   3.540   4.993 -0.1730 -0.1294 -0.7268
 1401SOL    HW1 4022   2.001   3.544   5.052 -0.8780 -1.7981 -1.5203
 1401SOL    HW2 4023   2.076   3.612   4.924 -1.2296 -0.5138 -1.0576
 1402SOL     OW 4024   0.180   1.283   3.370 -0.2974 -0.4837 -0.3729
 1402SOL    HW1 4025   0.224   1.224   3.302  0.0566  0.3396 -0.8707
 1402SOL    HW2 4026   0.081   1.280   3.358 -0.1911  0.7983 -1.9342
 1403SOL     OW 4027   1.947   3.678   2.023  0.0290  0.3061  0.0976
 1403SOL    HW1 4028   1.869   3.689   2.085  0.6385  3.7815  0.4418
 1403SOL    HW2 4029   2.024   3.639   2.073 -0.2763  0.5775  0.7929
 1404SOL     OW 4030   0.854   4.310   0.630  0.0345  0.0420  0.4601
 1404SOL    HW1 4031   0.906   4.325   0.545  1.9183  1.0315  1.7229
 1404SOL    HW2 4032   0.917   4.287   0.704 -1.4747  0.1385  1.8326
 1405SOL     OW 4033   1.507   3.732   0.276 -0.3622 -0.0659  1.1099
 1405SOL    HW1 4034   1.455   3.805   0.320 -0.0757 -0.6633  2.4905
 1405SOL    HW2 4035   1.446   3.678   0.218 -0.4786  1.5380 -0.3215
 1406SOL     OW 4036   1.203   4.301   0.573  0.4871  0.5657  0.5941
 1406SOL    HW1 4037   1.280   4.361   0.555  1.2207 -1.0188 -2.0026
 1406SOL    HW2 4038   1.227   4.236   0.645  1.7577 -0.1894 -0.4906
 1407SOL     OW 4039   1.364   4.559   1.725 -0.3383  0.3288  0.0616
 1407SOL    HW1 4040   1.446   4.573   1.781 -1.5285 -0.2974  2.0887
 1407SOL    HW2 4041   1.318   4.475   1.756 -1.6219  0.5491 -1.1934
 1408SOL     OW 4042   1.429   3.207   2.199 -0.4368 -0.0276 -0.7535
 1408SOL    HW1 4043   1.395   3.294   2.235  1.8557 -0.0813  1.9323
 1408SOL    HW2 4044   1.520   3.220   2.161 -0.3822 -1.1094 -1.0242
 1409SOL     OW 4045   1.228   4.952   1.488  0.1204 -0.6458 -0.4315
 1409SOL    HW1 4046   1.151   4.889   1.495  0.2431 -0.8659 -0.9378
 1409SOL    HW2 4047   1.245   4.995   1.576 -1.9439  1.0380 -0.7933
 1410SOL     OW 4048   1.888   3.653   1.757 -0.2335  0.5082  0.3528
 1410SOL    HW1 4049   1.948   3.700   1.692 -0.5820  1.9312  1.0045
 1410SOL    HW2 4050   1.905   3.689   1.849 -1.0801 -0.0956  0.7585
 1411SOL     OW 4051   1.010   4.191   0.820  0.3941 -0.1620  0.2866
 1411SOL    HW1 4052   1.107   4.170   0.805  0.3330 -0.0143 -0.3202
 1411SOL    HW2 4053   1.002   4.269   0.882  0.6785  0.3360 -0.2953
 1412SOL     OW 4054   1.089   3.887   2.041 -0.2346 -0.1178 -0.0663
 1412SOL    HW1 4055   1.088   3.792   2.071  0.8662  0.4630  2.0137
 1412SOL    HW2 4056   0.995   3.916   2.022 -0.4835 -1.9011 -1.8883
 1413SOL     OW 4057   2.336   4.706   2.587  0.1508 -0.4424  0.1867
 1413SOL    HW1 4058   2.245   4.691   2.548  0.2568 -1.6261  0.3437
 1413SOL    HW2 4059   2.345   4.651   2.670  2.4417 -3.8863 -2.0548
 1414SOL     OW 4060   2.301   3.844   1.912 -0.5121  0.2612 -0.5936
 1414SOL    HW1 4061   2.238   3.766   1.905 -1.7063  1.1529 -0.1177
 1414SOL    HW2 4062   2.270   3.905   1.985  1.6997  0.0490  0.6334
 1415SOL     OW 4063   1.003   4.407   0.397 -0.3008 -0.7927 -0.0498
 1415SOL    HW1 4064   1.065   4.376   0.469 -1.1606 -1.5287  0.3956
 1415SOL    HW2 4065   1.052   4.467   0.334  0.9166 -1.5277  0.1640
 1416SOL     OW 4066   1.761   0.203   2.865  0.2775 -0.4079  0.1954
 1416SOL    HW1 4067   1.791   0.297   2.849 -0.0304 -0.4142 -0.4847
 1416SOL    HW2 4068   1.780   0.148   2.784 -2.6219 -0.1233 -0.8130
 1417SOL     OW 4069   0.314   0.721   1.865 -0.4999  0.2871  0.4030
 1417SOL    HW1 4070   0.305   0.661   1.786 -0.7262  0.2447  0.4602
 1417SOL    HW2 4071   0.360   0.805   1.838  0.7114 -0.3132  0.5233
 1418SOL     OW 4072   1.929   3.465   0.850 -0.2197  0.5214 -0.0922
 1418SOL    HW1 4073   1.911   3.539   0.785  0.0958 -0.3844 -1.2219
 1418SOL    HW2 4074   1.845   3.443   0.899 -0.5731  0.8740 -0.5300
 1419SOL     OW 4075   4.476   0.313   1.807  1.0552 -0.2342  0.0505
 1419SOL    HW1 4076   4.512   0.352   1.723 -2.5273  0.0645 -1.5177
 1419SOL    HW2 4077   4.548   0.313   1.877  3.2327  2.5822 -1.9403
 1420SOL     OW 4078   0.193   4.268   0.474  0.5485  0.1062  0.0031
 1420SOL    HW1 4079   0.272   4.307   0.520  1.4820  1.0578 -2.2444
 1420SOL    HW2 4080   0.123   4.339   0.463  0.1082 -0.2581  0.4259
 1421SOL     OW 4081   1.308   0.447   1.011 -0.3259  0.0307  0.1285
 1421SOL    HW1 4082   1.253   0.467   1.092 -0.4085  0.5908 -0.0621
 1421SOL    HW2 4083   1.350   0.357   1.020 -3.1334 -1.4709 -0.7354
 1422SOL     OW 4084   1.903   3.346   0.434 -0.0297 -0.3298  0.1779
 1422SOL    HW1 4085   1.986   3.359   0.488  1.0218  0.4471 -1.5616
 1422SOL    HW2 4086   1.833   3.410   0.465  0.8518  0.7095  0.0851
 1423SOL     OW 4087   0.990   4.632   1.235  0.8783 -0.2389 -0.1317
 1423SOL    HW1 4088   0.997   4.534   1.256 -1.2430 -0.8522 -1.9638
 1423SOL    HW2 4089   1.033   4.650   1.147  1.6480  0.5948  0.3994
 1424SOL     OW 4090   0.821   2.914   0.062  0.4264 -0.8012  0.4251
 1424SOL    HW1 4091   0.792   3.008   0.046  0.8319 -0.5171  1.3013
 1424SOL    HW2 4092   0.795   2.857  -0.016  0.9706  0.2074 -0.5138
 1425SOL     OW 4093   2.022   3.817   0.129  0.0183  0.2056  0.0159
 1425SOL    HW1 4094   2.111   3.844   0.093  0.1672  0.3484  0.4846
 1425SOL    HW2 4095   1.989   3.737   0.079  1.0138 -0.6612  0.6914
 1426SOL     OW 4096   1.588   4.871   1.746 -0.3165 -0.2825 -0.2859
 1426SOL    HW1 4097   1.527   4.944   1.777  0.2113  0.0907 -0.1054
 1426SOL    HW2 4098   1.569   4.851   1.650 -2.1697 -1.6581  0.3133
 1427SOL     OW 4099   0.101   4.216   4.951 -0.3630 -0.1617 -0.6108
 1427SOL    HW1 4100   0.142   4.136   4.907 -0.4653 -1.0944  0.9302
 1427SOL    HW2 4101   0.077   4.194   5.045  0.8262  2.0915  0.2852
 1428SOL     OW 4102   0.303   0.550   2.493  0.1277  0.5892  0.0727
 1428SOL    HW1 4103   0.368   0.557   2.418 -0.7307  1.1669 -0.6350
 1428SOL    HW2 4104   0.301   0.636   2.544  0.8268  0.1460  0.8779
 1429SOL     OW 4105   3.668   3.606   2.971 -0.3827  0.2232 -0.7590
 1429SOL    HW1 4106   3.753   3.554   2.981 -1.5757 -1.8643 -0.9367
 1429SOL    HW2 4107   3.659   3.636   2.877 -0.7822 -1.3189 -1.2346
 1430SOL     OW 4108   0.045   4.987   2.033 -0.0003  0.6193 -0.2110
 1430SOL    HW1 4109  -0.004   4.941   2.106 -3.1011  2.1906 -1.1257
 1430SOL    HW2 4110   0.091   4.920   1.975  0.9307 -0.7616  2.0203
 1431SOL     OW 4111   0.863   0.655   3.100  0.5260 -0.2824 -0.1010
 1431SOL    HW1 4112   0.944   0.690   3.054  0.9452 -2.1009 -0.8314
 1431SOL    HW2 4113   0.889   0.584   3.165 -0.5740 -2.5311 -1.9599
 1432SOL     OW 4114   2.289   2.711   3.781  0.1900  0.4051 -0.1852
 1432SOL    HW1 4115   2.292   2.717   3.681 -0.5863  0.2546 -0.2212
 1432SOL    HW2 4116   2.250   2.795   3.818  2.5001  1.4290  0.1422
 1433SOL     OW 4117   4.640   4.577   2.745  0.1732 -0.2803 -0.2177
 1433SOL    HW1 4118   4.546   4.579   2.780 -0.1969  1.1803 -1.1826
 1433SOL    HW2 4119   4.653   4.655   2.683  2.2053 -0.1205  0.3525
 1434SOL     OW 4120   1.805   0.096   2.611  0.1383  0.0534 -0.0518
 1434SOL    HW1 4121   1.807  -0.004   2.613 -0.2824  0.0088 -1.2356
 1434SOL    HW2 4122   1.790   0.127   2.517 -2.3342  1.1734  0.6150
 1435SOL     OW 4123   0.110   0.454   2.318  0.7843 -0.0858 -0.2244
 1435SOL    HW1 4124   0.131   0.510   2.238  0.1774 -1.4587 -1.3891
 1435SOL    HW2 4125   0.165   0.485   2.396  1.5385  1.1435 -1.2070
 1436SOL     OW 4126   2.437   4.834   2.975  0.2584  0.5624  0.1395
 1436SOL    HW1 4127   2.439   4.919   2.922 -1.2325  1.6951  1.8170
 1436SOL    HW2 4128   2.522   4.824   3.026 -0.2631  1.9940  1.3254
 1437SOL     OW 4129   0.383   4.705   3.067 -0.4391 -0.0332 -0.6172
 1437SOL    HW1 4130   0.419   4.672   3.155 -0.6090 -1.8682 -1.2021
 1437SOL    HW2 4131   0.410   4.801   3.055 -1.4139  0.6657  1.9587
 1438SOL     OW 4132   1.222   0.165   3.059  0.0513 -0.2782  0.6099
 1438SOL    HW1 4133   1.309   0.177   3.106  0.7498 -0.4724 -0.5821
 1438SOL    HW2 4134   1.239   0.131   2.967 -1.1858  1.2463 -0.2256
 1439SOL     OW 4135   1.260   0.019   2.461 -0.0306 -0.0773  0.2915
 1439SOL    HW1 4136   1.271   0.033   2.363  0.0649 -1.0526  0.1466
 1439SOL    HW2 4137   1.350   0.025   2.505 -0.1131  0.6677  0.3718
 1440SOL     OW 4138   0.469   4.181   3.626 -0.4373  0.0344 -0.0123
 1440SOL    HW1 4139   0.491   4.226   3.540  0.5114 -0.9605 -0.2993
 1440SOL    HW2 4140   0.414   4.099   3.609 -2.1742  1.0374  0.5105
 1441SOL     OW 4141   1.433   3.572   2.962 -0.1541  0.3297  0.2354
 1441SOL    HW1 4142   1.361   3.536   2.901 -0.4367 -2.0198  1.7998
 1441SOL    HW2 4143   1.413   3.667   2.985 -0.7983  0.8415 -2.1502
 1442SOL     OW 4144   4.754   4.315   3.688  0.4634  0.1609  0.5417
 1442SOL    HW1 4145   4.825   4.321   3.758  1.5580  1.8689 -0.6560
 1442SOL    HW2 4146   4.752   4.222   3.651  1.2014 -0.2290  1.4380
 1443SOL     OW 4147   1.066   4.348   2.548  0.2056  0.3775 -0.8942
 1443SOL    HW1 4148   1.008   4.325   2.470 -1.0596  2.1453 -0.5333
 1443SOL    HW2 4149   1.102   4.441   2.536  1.2540  0.0935 -0.0917
 1444SOL     OW 4150   2.195   3.628   2.092 -0.0063  0.3797  0.5173
 1444SOL    HW1 4151   2.217   3.537   2.127 -2.1070  0.0294  1.0095
 1444SOL    HW2 4152   2.206   3.695   2.166  0.5641  0.4046  0.4195
 1445SOL     OW 4153   0.683   4.391   2.093  0.3436  0.4681 -0.4405
 1445SOL    HW1 4154   0.709   4.296   2.113 -0.0491  0.5817  0.6661
 1445SOL    HW2 4155   0.687   4.406   1.994  0.3733 -0.7160 -0.6374
 1446SOL     OW 4156   4.010   4.515   2.924 -0.4324 -0.7668 -0.6166
 1446SOL    HW1 4157   3.946   4.583   2.889  0.5875 -0.4553 -1.9550
 1446SOL    HW2 4158   4.069   4.558   2.993 -1.2233 -0.8898  0.1513
 1447SOL     OW 4159   2.792   3.801   1.637 -0.1478 -0.0349 -0.3794
 1447SOL    HW1 4160   2.780   3.868   1.710  1.8907 -1.3105  1.2445
 1447SOL    HW2 4161   2.719   3.812   1.569 -0.6671  2.8618  0.5072
 1448SOL     OW 4162   0.076   4.761   3.328 -0.3490  0.4553 -0.3549
 1448SOL    HW1 4163   0.057   4.782   3.424 -0.3279 -0.1231 -0.2186
 1448SOL    HW2 4164   0.111   4.843   3.282 -2.3156  1.3261 -0.3919
 1449SOL     OW 4165   0.660   1.470   2.652 -0.6026  0.5756  0.3011
 1449SOL    HW1 4166   0.689   1.493   2.745  0.3879  0.5051  0.0202
 1449SOL    HW2 4167   0.578   1.522   2.629 -1.6550 -0.3912  1.6878
 1450SOL     OW 4168   1.090   2.941   2.430 -0.1129  0.8570 -0.4139
 1450SOL    HW1 4169   1.050   3.013   2.374 -1.1186  0.4529 -0.2302
 1450SOL    HW2 4170   1.188   2.959   2.442 -0.4265  2.4186  0.0074
 1451SOL     OW 4171   0.150   0.462   2.820 -0.1711  0.0559  0.1738
 1451SOL    HW1 4172   0.096   0.387   2.858  0.6561 -0.4027  0.4793
 1451SOL    HW2 4173   0.183   0.437   2.729  0.1249  0.0339  0.2850
 1452SOL     OW 4174   2.967   4.989   1.185  0.5392 -0.5626 -0.1482
 1452SOL    HW1 4175   3.022   4.915   1.222  2.1842  0.4852 -0.3664
 1452SOL    HW2 4176   2.947   5.056   1.257  0.6220 -0.3315 -0.3365
 1453SOL     OW 4177   1.478   1.053   4.148  0.1705  0.5260  0.2831
 1453SOL    HW1 4178   1.418   1.016   4.077 -0.3970 -2.6257  2.1927
 1453SOL    HW2 4179   1.570   1.014   4.138 -0.3864 -1.5293  2.2302
 1454SOL     OW 4180   2.095   0.123   2.940  0.2092  0.1913  0.3881
 1454SOL    HW1 4181   2.035   0.060   2.990  1.3297 -1.2039  0.0319
 1454SOL    HW2 4182   2.184   0.127   2.984 -0.4321  3.2377  1.6650
 1455SOL     OW 4183   0.822   5.029   1.624 -0.1830 -0.5549 -0.1161
 1455SOL    HW1 4184   0.729   5.015   1.657 -0.8128  1.9224 -0.6618
 1455SOL    HW2 4185   0.824   5.022   1.524 -0.9513  4.2369 -0.6737
 1456SOL     OW 4186   1.176   4.135   2.672  0.6568 -0.2468  0.2330
 1456SOL    HW1 4187   1.174   4.092   2.582 -3.1276  0.6693 -0.2977
 1456SOL    HW2 4188   1.167   4.234   2.663 -1.7411 -0.2634  1.5483
 1457SOL     OW 4189   1.261   3.865   5.068  0.5300 -0.1922  0.1527
 1457SOL    HW1 4190   1.247   3.918   4.985 -1.1048  2.0025  1.7148
 1457SOL    HW2 4191   1.345   3.895   5.113 -0.1346  0.7966  0.7773
 1458SOL     OW 4192   1.731   3.735   3.843  0.2502 -0.0229 -0.0120
 1458SOL    HW1 4193   1.664   3.674   3.884  0.7123 -1.4716 -1.3174
 1458SOL    HW2 4194   1.820   3.690   3.841  0.9757  1.3248  0.4181
 1459SOL     OW 4195   1.337   0.924   2.879 -0.6488 -0.3557 -0.4513
 1459SOL    HW1 4196   1.262   0.977   2.919 -1.1879 -1.5623  0.1760
 1459SOL    HW2 4197   1.368   0.855   2.944  2.2939  1.2818  0.0392
 1460SOL     OW 4198   0.971   4.219   3.325  0.3790 -0.2572  0.3051
 1460SOL    HW1 4199   1.007   4.215   3.232  0.6643 -1.2986  0.4524
 1460SOL    HW2 4200   0.901   4.291   3.330 -0.7380 -1.1913 -1.1022
 1461SOL     OW 4201   2.641   4.142   2.818  0.3757  0.0435  0.4740
 1461SOL    HW1 4202   2.562   4.081   2.811 -0.0758  0.4469  1.7949
 1461SOL    HW2 4203   2.629   4.218   2.754  0.8262 -1.0848 -1.0039
 1462SOL     OW 4204   4.874   3.969   2.507 -0.4170  0.6599 -0.1313
 1462SOL    HW1 4205   4.854   3.920   2.591 -4.9346  1.7497 -0.2964
 1462SOL    HW2 4206   4.945   4.038   2.524  0.4089 -0.6282  2.0744
 1463SOL     OW 4207   0.589   4.386   1.843  0.2777  1.0529  0.0450
 1463SOL    HW1 4208   0.563   4.479   1.815 -0.5322  0.1689 -2.3984
 1463SOL    HW2 4209   0.507   4.328   1.843  1.2829 -0.4697 -2.0743
 1464SOL     OW 4210   0.853   3.988   4.197 -0.0255  0.0147  0.3913
 1464SOL    HW1 4211   0.878   3.964   4.291  0.8874  1.0433  0.4243
 1464SOL    HW2 4212   0.833   4.086   4.192 -0.3662 -0.0900 -0.4301
 1465SOL     OW 4213   1.700   0.124   1.623 -0.2485 -0.2867 -0.5472
 1465SOL    HW1 4214   1.760   0.050   1.592  0.3303  0.0708 -0.2993
 1465SOL    HW2 4215   1.605   0.093   1.619 -0.0021 -1.1545 -0.1552
 1466SOL     OW 4216   4.617   3.692   2.363  0.1918 -0.1008  0.5161
 1466SOL    HW1 4217   4.645   3.669   2.456  2.8960 -2.7968 -0.7837
 1466SOL    HW2 4218   4.666   3.773   2.333  0.1463  0.1300  1.0456
 1467SOL     OW 4219   1.479   4.211   1.637  0.2154  0.3166 -0.1304
 1467SOL    HW1 4220   1.494   4.236   1.541 -1.4652 -1.0183 -0.7848
 1467SOL    HW2 4221   1.404   4.265   1.674  1.5953  1.6577  0.8466
 1468SOL     OW 4222   0.247   2.825   1.078 -0.7480  0.4031 -0.1522
 1468SOL    HW1 4223   0.175   2.756   1.080 -0.3269 -0.0514 -0.2480
 1468SOL    HW2 4224   0.278   2.838   0.984 -0.4846  0.3559 -0.0742
 1469SOL     OW 4225   4.042   0.957   2.312 -0.2256 -0.1723  0.1859
 1469SOL    HW1 4226   4.065   0.966   2.215 -2.1479 -0.6004 -0.3542
 1469SOL    HW2 4227   4.020   0.861   2.333 -1.4683  0.1953  0.6345
 1470SOL     OW 4228   0.180   3.871   3.080  0.1592  0.5541 -0.1475
 1470SOL    HW1 4229   0.280   3.867   3.082  0.2328  2.0464 -0.1482
 1470SOL    HW2 4230   0.143   3.799   3.140  1.2271  0.1391  0.0344
 1471SOL     OW 4231   1.642   4.256   1.862  0.0865 -0.2307  0.2356
 1471SOL    HW1 4232   1.592   4.252   1.775  0.5042 -0.5723  0.0085
 1471SOL    HW2 4233   1.589   4.309   1.928  0.1567  0.7542 -0.4748
 1472SOL     OW 4234   1.670   3.983   2.766 -0.5688  0.0660 -0.2803
 1472SOL    HW1 4235   1.578   4.009   2.738 -0.1502  0.2402 -1.5651
 1472SOL    HW2 4236   1.735   4.009   2.694  0.3065 -1.2629 -0.0016
 1473SOL     OW 4237   0.388   5.024   2.231 -0.8951 -0.6860 -0.0900
 1473SOL    HW1 4238   0.318   5.095   2.233 -0.1209  0.2293 -2.4550
 1473SOL    HW2 4239   0.440   5.030   2.146  1.2971 -2.0974  1.0413
 1474SOL     OW 4240   1.210   4.192   3.820  0.1837 -0.3628  0.2115
 1474SOL    HW1 4241   1.178   4.227   3.732  2.6400  1.5845 -0.0261
 1474SOL    HW2 4242   1.135   4.147   3.867 -2.0059  1.1755 -1.5818
 1475SOL     OW 4243   5.016   3.393   3.160 -0.2716  0.3010  0.0156
 1475SOL    HW1 4244   5.016   3.347   3.071  1.0137  0.3582 -0.0390
 1475SOL    HW2 4245   4.986   3.488   3.149  0.3526  0.4542 -0.4614
 1476SOL     OW 4246   1.229   4.326   4.048 -0.3429 -0.4649  0.1379
 1476SOL    HW1 4247   1.260   4.294   3.959  1.9122 -1.1054  1.0807
 1476SOL    HW2 4248   1.218   4.248   4.109  2.4138  0.1886  1.6372
 1477SOL     OW 4249   1.531   0.036   2.584  0.1065 -0.4017  0.2770
 1477SOL    HW1 4250   1.613   0.094   2.584  0.1708 -0.4777 -0.6281
 1477SOL    HW2 4251   1.528  -0.018   2.668  0.0924  0.8366  1.1138
 1478SOL     OW 4252   1.025   0.282   2.738  0.0013 -0.1231  0.0325
 1478SOL    HW1 4253   1.063   0.189   2.744 -0.4287 -0.3272 -0.3568
 1478SOL    HW2 4254   0.925   0.278   2.745  0.0960  0.5600  2.8250
 1479SOL     OW 4255   0.775   4.263   3.044 -0.3174 -0.3344  0.4619
 1479SOL    HW1 4256   0.818   4.354   3.048 -0.3156 -0.3461  0.7790
 1479SOL    HW2 4257   0.845   4.194   3.024 -0.4643 -0.1696 -0.6616
 1480SOL     OW 4258   0.510   2.938   2.229 -0.5957 -0.5558  0.2434
 1480SOL    HW1 4259   0.527   2.840   2.219  0.2198 -0.2840 -1.3754
 1480SOL    HW2 4260   0.427   2.963   2.179  0.9247  0.0574 -2.1017
 1481SOL     OW 4261   1.225   4.843   2.980 -0.1691 -0.2341  0.0673
 1481SOL    HW1 4262   1.196   4.784   2.904 -0.0154 -0.7022  0.3650
 1481SOL    HW2 4263   1.147   4.864   3.038  0.0341 -1.3544  0.7754
 1482SOL     OW 4264   5.051   3.883   2.909 -0.1382 -0.4674 -0.2784
 1482SOL    HW1 4265   5.130   3.878   2.969 -0.7054  0.6369  0.5990
 1482SOL    HW2 4266   5.060   3.963   2.849 -0.6188 -0.2668 -0.0955
 1483SOL     OW 4267   0.685   3.558   1.733  0.3689  0.3455 -0.1696
 1483SOL    HW1 4268   0.643   3.623   1.796  0.2795 -1.1007  1.3279
 1483SOL    HW2 4269   0.705   3.604   1.647 -1.3831  1.8691  0.1691
 1484SOL     OW 4270   0.785   3.967   3.355 -0.2409 -0.0344  0.3294
 1484SOL    HW1 4271   0.723   3.969   3.433 -0.9793 -1.1805 -0.2139
 1484SOL    HW2 4272   0.833   4.055   3.349 -1.1301  0.5385  1.2870
 1485SOL     OW 4273   4.843   0.356   1.985  0.3427  0.3624 -0.2081
 1485SOL    HW1 4274   4.841   0.392   2.079  1.6151  0.3231 -0.1556
 1485SOL    HW2 4275   4.933   0.372   1.945 -0.1305  0.2123 -1.3746
 1486SOL     OW 4276   4.536   0.586   3.159  0.3575  0.0451  0.0361
 1486SOL    HW1 4277   4.460   0.553   3.216 -1.0453  0.8589 -1.2845
 1486SOL    HW2 4278   4.500   0.621   3.072  2.4275 -1.5082 -1.5634
 1487SOL     OW 4279   0.130   5.085   2.843 -0.1309 -0.5472  0.3502
 1487SOL    HW1 4280   0.207   5.065   2.905 -0.9909 -1.3348  1.2051
 1487SOL    HW2 4281   0.067   5.007   2.842 -1.2188  0.3050  0.1300
 1488SOL     OW 4282   4.974   4.990   4.460 -0.1498 -0.1542  0.0831
 1488SOL    HW1 4283   4.876   5.009   4.470 -0.1635  0.6957 -1.3684
 1488SOL    HW2 4284   5.024   5.076   4.449  0.5221 -0.6577 -0.9637
 1489SOL     OW 4285   1.744   4.244   2.970  0.3521  0.0821  0.9317
 1489SOL    HW1 4286   1.816   4.185   2.933  1.0190  1.2301  0.3104
 1489SOL    HW2 4287   1.737   4.327   2.913 -2.7478 -0.7917 -0.1562
 1490SOL     OW 4288   0.923   4.486   3.545  0.6273  0.1354  0.0097
 1490SOL    HW1 4289   0.888   4.396   3.520  0.2158  0.0956  0.6955
 1490SOL    HW2 4290   0.892   4.509   3.638  3.1678 -0.2879  1.0426
 1491SOL     OW 4291   1.003   4.420   1.579  0.0788  0.1653  0.3408
 1491SOL    HW1 4292   1.041   4.422   1.486 -2.4505 -0.4889 -0.8194
 1491SOL    HW2 4293   1.002   4.512   1.616  2.6360  0.2214  0.4573
 1492SOL     OW 4294   0.124   0.145   1.743 -0.2963  0.1128  0.3001
 1492SOL    HW1 4295   0.056   0.156   1.670  0.3132  0.4677 -0.2212
 1492SOL    HW2 4296   0.119   0.051   1.778 -0.2555 -0.2163 -0.5447
 1493SOL     OW 4297   1.635   4.274   3.240 -0.0994 -0.2926 -0.0428
 1493SOL    HW1 4298   1.682   4.219   3.172  1.3503  2.6291 -1.5764
 1493SOL    HW2 4299   1.702   4.320   3.298 -1.2473 -0.1173  1.1886
 1494SOL     OW 4300   1.433   4.070   2.721  0.1980  0.3885  0.0019
 1494SOL    HW1 4301   1.333   4.063   2.716  0.2556 -1.9463  0.5480
 1494SOL    HW2 4302   1.465   4.141   2.659 -1.7931  1.2689 -0.1088
 1495SOL     OW 4303   2.364   3.827   3.474 -0.8217  0.4281 -0.7696
 1495SOL    HW1 4304   2.349   3.779   3.560 -0.8795  0.9919 -0.4538
 1495SOL    HW2 4305   2.278   3.831   3.422 -1.0655  1.0359 -0.3424
 1496SOL     OW 4306   2.752   4.236   2.290 -0.0576 -0.4485 -0.2634
 1496SOL    HW1 4307   2.821   4.195   2.349  0.5867  1.7532  0.6173
 1496SOL    HW2 4308   2.788   4.320   2.250 -1.0891 -0.9704 -2.4836
 1497SOL     OW 4309   0.714   3.871   3.086  0.7551 -0.2661  0.6324
 1497SOL    HW1 4310   0.756   3.919   3.163  0.4698 -0.5154  0.9451
 1497SOL    HW2 4311   0.616   3.892   3.084  1.0710  1.3717 -0.8579
 1498SOL     OW 4312   1.731   3.984   3.460 -0.2485 -0.3453 -0.3213
 1498SOL    HW1 4313   1.671   4.037   3.400 -0.6671  0.5262  0.8528
 1498SOL    HW2 4314   1.754   4.037   3.541  1.2648 -1.0632 -0.2276
 1499SOL     OW 4315   1.453   4.796   3.099  0.0708  0.0633  0.2441
 1499SOL    HW1 4316   1.363   4.826   3.067  0.1198 -0.0063  0.0428
 1499SOL    HW2 4317   1.442   4.715   3.157 -0.1136  0.7549  1.2061
 1500SOL     OW 4318   1.911   4.639   3.312  0.2415 -0.3580 -0.9135
 1500SOL    HW1 4319   1.904   4.700   3.233 -1.3300  3.7094  2.0226
 1500SOL    HW2 4320   1.989   4.665   3.369 -0.9654 -0.4510  0.8784
 1501SOL     OW 4321   0.854   5.037   3.366 -0.6747  0.4090 -0.1424
 1501SOL    HW1 4322   0.921   5.089   3.313  0.0600  0.1056  0.4609
 1501SOL    HW2 4323   0.863   5.061   3.463  0.1304 -1.2704  0.2370
 1502SOL     OW 4324   0.876   4.586   2.205  0.2039 -0.1697  0.3893
 1502SOL    HW1 4325   0.816   4.521   2.158  1.9510  0.0414 -2.4215
 1502SOL    HW2 4326   0.826   4.671   2.221 -0.9189 -0.7888  0.2868
 1503SOL     OW 4327   5.012   4.704   2.603 -0.2398 -0.6785 -0.4960
 1503SOL    HW1 4328   5.024   4.767   2.680 -0.6313 -0.5498 -0.5381
 1503SOL    HW2 4329   5.099   4.695   2.554  0.8535 -3.0607  1.6765
 1504SOL     OW 4330   1.545   4.427   3.981  0.1354 -0.4363  0.3250
 1504SOL    HW1 4331   1.545   4.398   3.885 -1.8750  0.6694 -0.0762
 1504SOL    HW2 4332   1.541   4.527   3.985 -1.8161 -0.5057  1.4707
 1505SOL     OW 4333   1.240   4.871   2.114  0.1089 -0.3287  0.5860
 1505SOL    HW1 4334   1.247   4.871   2.015 -0.8095 -0.5419  0.5121
 1505SOL    HW2 4335   1.147   4.898   2.141  0.3075 -0.4148  1.3788
 1506SOL     OW 4336   0.829   5.032   2.700  0.2312 -0.5779  0.4874
 1506SOL    HW1 4337   0.907   5.093   2.710 -0.3522  0.0065  1.8228
 1506SOL    HW2 4338   0.744   5.085   2.704 -0.2517 -1.2075 -0.8897
 1507SOL     OW 4339   0.891   4.648   1.675  0.2764  0.2370  0.1018
 1507SOL    HW1 4340   0.794   4.624   1.664 -0.2694  2.0279  0.6714
 1507SOL    HW2 4341   0.900   4.723   1.741  2.0945 -0.1116  0.3004
 1508SOL     OW 4342   4.425   4.128   3.847  0.1298 -0.1772 -0.2756
 1508SOL    HW1 4343   4.521   4.105   3.862  0.0498  0.7253  2.1395
 1508SOL    HW2 4344   4.368   4.077   3.912 -0.9188  0.1462 -0.9131
 1509SOL     OW 4345   1.297   4.664   3.676  0.6520 -0.0946 -0.4437
 1509SOL    HW1 4346   1.213   4.697   3.635  0.0149 -0.9562  0.1372
 1509SOL    HW2 4347   1.295   4.564   3.680  1.5228 -0.1040 -0.0496
 1510SOL     OW 4348   2.310   3.700   3.714  0.7890 -0.4843  0.1145
 1510SOL    HW1 4349   2.306   3.608   3.754  0.5777  0.0241  1.3178
 1510SOL    HW2 4350   2.275   3.766   3.781  0.5864  0.4285 -0.8781
 1511SOL     OW 4351   4.727   4.640   4.253  1.0658  0.4843 -0.0614
 1511SOL    HW1 4352   4.686   4.619   4.342 -2.3022 -0.3849 -1.6657
 1511SOL    HW2 4353   4.824   4.615   4.255  0.6217 -1.5175  2.7241
 1512SOL     OW 4354   0.282   4.478   2.710 -0.1823  0.2887  0.9523
 1512SOL    HW1 4355   0.309   4.386   2.741 -0.6749  0.1955  1.1041
 1512SOL    HW2 4356   0.210   4.470   2.641  0.3178  0.5334  0.3946
 1513SOL     OW 4357   2.078   3.245   2.762 -0.2274  0.1894  0.4331
 1513SOL    HW1 4358   2.129   3.204   2.687  1.3727  0.4209  1.3722
 1513SOL    HW2 4359   2.100   3.200   2.848 -0.2714  1.4098  1.1169
 1514SOL     OW 4360   0.737   4.149   1.770  0.2920 -0.5440 -0.5916
 1514SOL    HW1 4361   0.833   4.157   1.742  0.2445 -0.8193 -0.8298
 1514SOL    HW2 4362   0.699   4.241   1.782  0.4574 -0.4276 -0.9387
 1515SOL     OW 4363   4.514   2.841   3.645  0.4185  0.1303  0.4155
 1515SOL    HW1 4364   4.612   2.847   3.628  0.3441 -0.4691 -0.2483
 1515SOL    HW2 4365   4.484   2.922   3.695  1.2145  0.4121  0.4447
 1516SOL     OW 4366   4.867   4.564   3.186 -0.5750 -0.0723 -0.6666
 1516SOL    HW1 4367   4.960   4.529   3.185 -0.3952  0.4065 -1.2414
 1516SOL    HW2 4368   4.854   4.626   3.109 -1.0712  0.6360 -0.0316
 1517SOL     OW 4369   1.000   3.372   2.297 -0.3826 -0.7972 -0.1518
 1517SOL    HW1 4370   1.100   3.368   2.290 -0.2321  1.7899 -0.2642
 1517SOL    HW2 4371   0.960   3.365   2.206 -0.4957 -3.7191  0.0164
 1518SOL     OW 4372   1.145   4.589   0.269 -0.1735  0.2962  0.3368
 1518SOL    HW1 4373   1.088   4.654   0.220  0.5152  1.9514  1.5956
 1518SOL    HW2 4374   1.189   4.636   0.347  2.5458 -0.9515 -0.3109
 1519SOL     OW 4375   0.729   4.118   2.118 -0.5035  0.3608 -0.1412
 1519SOL    HW1 4376   0.757   4.049   2.051  2.5031 -1.2621  2.5118
 1519SOL    HW2 4377   0.630   4.124   2.120 -0.8861 -3.3543 -1.0775
 1520SOL     OW 4378   1.174   4.775   1.069  0.0309 -0.3563 -0.3729
 1520SOL    HW1 4379   1.122   4.861   1.066 -0.2134 -0.5102 -3.0832
 1520SOL    HW2 4380   1.249   4.784   1.133  1.0679  2.5616 -1.7994
 1521SOL     OW 4381   4.804   4.729   2.937 -0.3608  0.7243  0.1796
 1521SOL    HW1 4382   4.752   4.789   2.999 -0.6411  2.4293 -1.6100
 1521SOL    HW2 4383   4.740   4.680   2.878 -0.0484  0.0053  0.4321
 1522SOL     OW 4384   1.202   0.672   0.002  0.1570  0.0209 -0.1095
 1522SOL    HW1 4385   1.141   0.623   0.063  0.8859 -1.6942 -0.7062
 1522SOL    HW2 4386   1.150   0.740  -0.050 -0.8538 -0.0350  0.8120
 1523SOL     OW 4387   1.787   4.161   3.651  0.3271 -0.7227 -0.3994
 1523SOL    HW1 4388   1.778   4.261   3.657  0.3432 -0.6853 -1.0112
 1523SOL    HW2 4389   1.817   4.126   3.740  1.3453 -0.0745 -0.4706
 1524SOL     OW 4390   1.194   4.530   0.947 -0.0283  0.1034 -0.0596
 1524SOL    HW1 4391   1.199   4.616   0.997 -1.0240  1.0679 -1.5536
 1524SOL    HW2 4392   1.285   4.507   0.911  0.1166  0.8754 -0.2015
 1525SOL     OW 4393   0.987   4.919   2.201  0.6346  0.1713  0.4299
 1525SOL    HW1 4394   0.944   4.913   2.291 -0.8593 -1.1852 -0.3213
 1525SOL    HW2 4395   0.920   4.948   2.133  1.9188  1.8840 -0.1718
 1526SOL     OW 4396   4.781   3.542   1.987 -0.1399  0.1061 -0.4764
 1526SOL    HW1 4397   4.794   3.453   1.943 -1.3462  0.1852 -1.0619
 1526SOL    HW2 4398   4.717   3.532   2.063 -0.1841  0.4543 -0.4696
 1527SOL     OW 4399   5.056   4.816   2.899  0.5227 -0.4180  0.2037
 1527SOL    HW1 4400   4.963   4.787   2.922  0.1629 -0.7916 -1.6338
 1527SOL    HW2 4401   5.109   4.736   2.870  0.9778  0.0175 -0.1754
 1528SOL     OW 4402   2.880   4.592   3.757 -0.0030 -0.6360 -0.2530
 1528SOL    HW1 4403   2.794   4.581   3.808  1.1353  0.8352  2.2039
 1528SOL    HW2 4404   2.888   4.519   3.689 -1.4667 -3.1155  2.0014
 1529SOL     OW 4405   1.267   4.406   3.605  0.1075  0.2110  0.1461
 1529SOL    HW1 4406   1.175   4.368   3.602  0.2746 -0.2212  0.4565
 1529SOL    HW2 4407   1.316   4.383   3.521  0.2258 -0.3077  0.3559
 1530SOL     OW 4408   0.877   1.846   2.750 -0.3805  0.4497  0.0175
 1530SOL    HW1 4409   0.863   1.929   2.696 -0.1552 -0.1261 -0.9477
 1530SOL    HW2 4410   0.934   1.782   2.698 -0.7025 -0.3832  0.6751
 1531SOL     OW 4411   1.257   4.295   1.759  0.0342 -0.0089  0.4151
 1531SOL    HW1 4412   1.201   4.345   1.825 -0.3002  1.3700 -0.8577
 1531SOL    HW2 4413   1.227   4.199   1.755 -1.5071  0.4426  0.5603
 1532SOL     OW 4414   1.124   4.600   2.431 -0.6059 -0.6265 -0.1935
 1532SOL    HW1 4415   1.035   4.600   2.385 -0.8372 -0.0785  0.2467
 1532SOL    HW2 4416   1.144   4.692   2.465 -0.4229 -1.0231  0.7851
 1533SOL     OW 4417   4.761   3.687   3.942 -0.3725 -0.7630 -0.8937
 1533SOL    HW1 4418   4.674   3.643   3.965 -0.4004 -1.1354 -1.6829
 1533SOL    HW2 4419   4.832   3.655   4.005 -1.0412  0.5012  0.5763
 1534SOL     OW 4420   2.213   4.508   3.207  0.3760  0.5198 -0.0286
 1534SOL    HW1 4421   2.274   4.576   3.248  1.4549 -0.9754  1.0206
 1534SOL    HW2 4422   2.170   4.455   3.280 -2.6234  1.8138 -0.7299
 1535SOL     OW 4423   0.875   4.871   2.482 -0.1737 -0.1416 -0.5765
 1535SOL    HW1 4424   0.800   4.814   2.448 -0.0706 -0.1474 -0.7993
 1535SOL    HW2 4425   0.840   4.935   2.550  0.0474 -1.7487  1.1159
 1536SOL     OW 4426   1.848   4.101   2.585 -0.1768 -0.2470 -0.1595
 1536SOL    HW1 4427   1.843   4.201   2.588  0.7847 -0.1936 -0.3200
 1536SOL    HW2 4428   1.911   4.073   2.513  0.5561 -0.9439  0.7436
 1537SOL     OW 4429   1.138   4.591   2.840 -0.7248 -0.5379  0.0580
 1537SOL    HW1 4430   1.183   4.517   2.889  1.7997  1.6364  1.2982
 1537SOL    HW2 4431   1.049   4.610   2.882 -1.2446 -2.5246 -0.0460
 1538SOL     OW 4432   0.376   3.760   2.309  0.3651 -0.0546 -0.1493
 1538SOL    HW1 4433   0.307   3.688   2.322  2.3555 -2.0000  0.2812
 1538SOL    HW2 4434   0.372   3.824   2.386 -0.3328 -0.6825  0.3559
 1539SOL     OW 4435   4.993   4.336   3.372  0.2052 -0.0840  0.3569
 1539SOL    HW1 4436   4.992   4.407   3.442 -0.0619  2.4377 -2.0323
 1539SOL    HW2 4437   5.064   4.356   3.305 -0.9393 -1.1769 -1.2655
 1540SOL     OW 4438   2.234   3.607   4.617  0.2270 -0.0727  0.1559
 1540SOL    HW1 4439   2.260   3.650   4.531 -0.4075  0.2831  0.1356
 1540SOL    HW2 4440   2.221   3.678   4.687 -1.6855 -0.1345 -0.1041
 1541SOL     OW 4441   0.494   4.557   3.287  0.0866  0.2143  0.0091
 1541SOL    HW1 4442   0.432   4.484   3.312  0.0137  0.8067  1.6451
 1541SOL    HW2 4443   0.512   4.616   3.366  2.0230  0.5830 -0.6286
 1542SOL     OW 4444   0.738   4.369   3.306 -0.4064 -0.3361  0.2374
 1542SOL    HW1 4445   0.655   4.424   3.306 -0.6984 -0.7685 -0.0335
 1542SOL    HW2 4446   0.738   4.307   3.227  0.6289  0.3239 -0.3079
 1543SOL     OW 4447   2.178   3.766   3.945 -0.2512  0.1527 -0.0725
 1543SOL    HW1 4448   2.149   3.740   4.037  0.3975 -0.5780 -0.0520
 1543SOL    HW2 4449   2.261   3.822   3.951  0.0140 -0.2172 -0.2134
 1544SOL     OW 4450   0.774   4.246   4.191 -0.0367  0.0689 -0.1174
 1544SOL    HW1 4451   0.753   4.293   4.277 -1.0183 -3.0408  1.4576
 1544SOL    HW2 4452   0.825   4.309   4.131 -1.0490  3.0000  1.8627
 1545SOL     OW 4453   1.264   0.348   3.675 -0.3210  0.4928  0.6196
 1545SOL    HW1 4454   1.225   0.429   3.718  1.7759  2.0958 -0.3223
 1545SOL    HW2 4455   1.338   0.312   3.732  0.1051  0.4950  0.0805
 1546SOL     OW 4456   2.483   3.910   2.839  0.4496 -0.0635  0.3875
 1546SOL    HW1 4457   2.532   3.879   2.920 -0.0008 -1.5103  0.1399
 1546SOL    HW2 4458   2.431   3.833   2.800 -0.8098  1.0457 -0.2120
 1547SOL     OW 4459   3.888   4.408   3.644  0.2581 -0.7333  0.1116
 1547SOL    HW1 4460   3.798   4.364   3.652 -0.4764  0.3893 -1.4454
 1547SOL    HW2 4461   3.951   4.345   3.597 -0.6139 -0.4205 -1.5665
 1548SOL     OW 4462   1.404   1.435   2.189  0.1061  0.5897  0.0650
 1548SOL    HW1 4463   1.328   1.493   2.219 -0.6510 -0.5487  0.3785
 1548SOL    HW2 4464   1.402   1.428   2.089 -1.2755 -0.8400  0.1664
 1549SOL     OW 4465   1.820   4.424   1.475 -0.4617 -0.5057 -0.1103
 1549SOL    HW1 4466   1.833   4.420   1.574 -2.2052 -2.8959  0.1053
 1549SOL    HW2 4467   1.723   4.416   1.454 -0.0568 -0.7155 -2.0493
 1550SOL     OW 4468   1.243   4.818   1.837 -0.1449  0.5472 -0.7166
 1550SOL    HW1 4469   1.298   4.751   1.786  1.1991  1.3108 -0.3227
 1550SOL    HW2 4470   1.147   4.809   1.811  0.1862 -0.6754 -1.6065
 1551SOL     OW 4471   0.273   4.776   3.584 -0.1567  0.1065  0.3668
 1551SOL    HW1 4472   0.204   4.705   3.573  0.0936 -0.2581  1.1015
 1551SOL    HW2 4473   0.277   4.805   3.680  1.0411 -0.2298  0.4420
 1552SOL     OW 4474   1.669   0.511   3.042 -0.4104  0.5748 -0.0367
 1552SOL    HW1 4475   1.684   0.543   3.135 -2.0630  1.5611 -0.0678
 1552SOL    HW2 4476   1.580   0.464   3.037  0.6032 -1.3676 -0.6747
 1553SOL     OW 4477   1.726   0.390   1.939  0.5268 -0.2575  0.5382
 1553SOL    HW1 4478   1.787   0.469   1.939 -0.4990  0.5554  0.0445
 1553SOL    HW2 4479   1.780   0.306   1.944  1.7617  0.3812 -1.1144
 1554SOL     OW 4480   0.968   3.442   2.690  0.2442 -0.7023 -0.0750
 1554SOL    HW1 4481   0.879   3.470   2.726 -1.1278  0.0196 -3.6300
 1554SOL    HW2 4482   0.962   3.350   2.652  0.4637 -0.0172 -1.8735
 1555SOL     OW 4483   1.616   3.328   3.891  0.0348  0.2758  0.4623
 1555SOL    HW1 4484   1.566   3.414   3.901 -2.7658 -0.9266 -1.6287
 1555SOL    HW2 4485   1.577   3.259   3.952  0.2537 -0.2483  0.0234
 1556SOL     OW 4486   5.087   0.564   1.688 -0.2690 -0.2948  0.0082
 1556SOL    HW1 4487   5.109   0.659   1.666 -0.8940 -0.5665 -2.0366
 1556SOL    HW2 4488   4.987   0.553   1.690 -0.2311 -1.2185 -1.4805
 1557SOL     OW 4489   0.054   4.539   3.173  0.3726  0.2982  0.1614
 1557SOL    HW1 4490   0.088   4.621   3.219  0.8925  0.7342 -0.9610
 1557SOL    HW2 4491   0.086   4.538   3.079 -4.4063  1.8270 -1.7492
 1558SOL     OW 4492   0.644   4.653   2.840 -0.7451  0.0757  0.2447
 1558SOL    HW1 4493   0.624   4.659   2.938  0.5941  2.2015  0.4350
 1558SOL    HW2 4494   0.715   4.584   2.825  0.5195  1.1479  1.0730
 1559SOL     OW 4495   1.584   4.728   2.866  0.8209  0.1765 -0.5160
 1559SOL    HW1 4496   1.532   4.756   2.947 -1.4311  0.2646 -1.9196
 1559SOL    HW2 4497   1.522   4.689   2.798  2.4143  1.3226 -2.7628
 1560SOL     OW 4498   4.317   3.268   1.594 -0.0746 -0.0392  0.1017
 1560SOL    HW1 4499   4.218   3.266   1.607  0.1002  0.4694  1.6750
 1560SOL    HW2 4500   4.359   3.327   1.662  1.5834 -2.5662  1.4593
 1561SOL     OW 4501   0.476   4.522   2.199  0.8904 -0.2689  0.5159
 1561SOL    HW1 4502   0.555   4.466   2.172  0.9044 -0.6808  1.3668
 1561SOL    HW2 4503   0.460   4.512   2.297  0.7295  1.0424  0.6398
 1562SOL     OW 4504   1.006   4.081   2.883  0.3243 -0.2539 -0.1260
 1562SOL    HW1 4505   1.051   4.108   2.798 -0.9757 -2.7091 -1.7422
 1562SOL    HW2 4506   1.041   4.135   2.959  2.7004  0.9477 -1.9590
 1563SOL     OW 4507   1.594   4.948   4.576 -0.7653  0.0858  0.1007
 1563SOL    HW1 4508   1.646   4.898   4.646 -1.1198  0.0108  0.3177
 1563SOL    HW2 4509   1.636   5.037   4.561 -0.0324 -0.3385 -0.4065
 1564SOL     OW 4510   0.587   4.118   4.002 -0.1954  0.0774 -0.0835
 1564SOL    HW1 4511   0.652   4.119   4.077 -1.2796 -0.6059  0.9010
 1564SOL    HW2 4512   0.519   4.190   4.015 -0.7098 -0.3955 -0.0965
 1565SOL     OW 4513   1.832   3.396   1.915 -0.0949 -0.2581 -0.0976
 1565SOL    HW1 4514   1.857   3.491   1.932 -0.5768 -0.4719  2.0903
 1565SOL    HW2 4515   1.794   3.387   1.823  2.8833  1.0243 -1.5938
 1566SOL     OW 4516   0.705   4.534   2.465  0.4263  0.0652  0.6706
 1566SOL    HW1 4517   0.712   4.525   2.564  1.2624  0.8639  0.6934
 1566SOL    HW2 4518   0.783   4.489   2.421  1.0696  1.3280  0.4792
 1567SOL     OW 4519   2.423   3.233   2.951 -0.0507  0.0700 -0.0362
 1567SOL    HW1 4520   2.512   3.270   2.928  0.1629  0.3739  1.1966
 1567SOL    HW2 4521   2.428   3.133   2.955  1.4180  0.1173  4.1569
 1568SOL     OW 4522   1.581   4.573   1.907  0.4159 -0.4575 -0.0189
 1568SOL    HW1 4523   1.622   4.664   1.897 -0.6302 -0.0047 -0.3606
 1568SOL    HW2 4524   1.626   4.524   1.982  2.0302 -0.2664 -0.8331
 1569SOL     OW 4525   0.291   4.501   3.793 -0.3976  0.2632 -0.5701
 1569SOL    HW1 4526   0.201   4.543   3.803 -0.9070 -1.1820  1.7256
 1569SOL    HW2 4527   0.361   4.559   3.835 -0.6091  0.3148 -0.2908
 1570SOL     OW 4528   0.437   4.657   2.564 -0.1534  1.0158  0.4845
 1570SOL    HW1 4529   0.386   4.595   2.625 -0.1870  0.7241  0.1579
 1570SOL    HW2 4530   0.515   4.609   2.525  1.0075  1.7590  1.7953
 1571SOL     OW 4531   0.079   0.956   3.262 -0.3410  0.3501  0.2963
 1571SOL    HW1 4532   0.029   1.042   3.277 -1.2944 -0.0534 -0.4291
 1571SOL    HW2 4533   0.057   0.921   3.171  1.7967  0.4858 -0.3317
 1572SOL     OW 4534   1.487   4.510   3.182 -0.3061  0.2663  0.0976
 1572SOL    HW1 4535   1.539   4.430   3.151  0.0916  0.6637 -0.2804
 1572SOL    HW2 4536   1.546   4.570   3.236 -0.5023  0.4759  0.0831
 1573SOL     OW 4537   0.181   4.813   1.891 -0.5393  0.1537 -0.0187
 1573SOL    HW1 4538   0.226   4.847   1.808 -1.5171  0.5774 -0.3915
 1573SOL    HW2 4539   0.223   4.726   1.918  0.1061  0.2413 -0.6810
 1574SOL     OW 4540   0.260   3.543   2.947  0.1352  0.0874 -0.2379
 1574SOL    HW1 4541   0.311   3.627   2.968 -1.3715  0.7821  0.8835
 1574SOL    HW2 4542   0.291   3.469   3.006  0.5067  0.2277 -0.2541
 1575SOL     OW 4543   1.332   3.411   3.765  0.8075 -0.0049  0.1494
 1575SOL    HW1 4544   1.327   3.469   3.683  0.7521 -0.4809 -0.1901
 1575SOL    HW2 4545   1.328   3.315   3.737  1.3138 -0.1816  0.6707
 1576SOL     OW 4546   1.276   3.411   2.302 -0.3733  0.0322 -0.2128
 1576SOL    HW1 4547   1.284   3.385   2.398  0.2995 -1.3292 -0.6187
 1576SOL    HW2 4548   1.300   3.508   2.292 -1.2203  0.3980  1.0867
 1577SOL     OW 4549   0.443   0.493   2.933  0.2724 -0.4155 -0.1395
 1577SOL    HW1 4550   0.356   0.457   2.898 -1.0314  2.3769 -0.0528
 1577SOL    HW2 4551   0.425   0.560   3.005  2.5606 -0.2014  0.3119
 1578SOL     OW 4552   1.488   4.309   1.376 -0.1401  0.5506 -0.2155
 1578SOL    HW1 4553   1.436   4.231   1.342 -0.1022  0.9841 -1.3300
 1578SOL    HW2 4554   1.525   4.360   1.298  2.1012  0.1745  0.5418
 1579SOL     OW 4555   1.341   3.318   2.564  0.5065 -0.1650 -0.6864
 1579SOL    HW1 4556   1.435   3.302   2.596  0.1223 -3.0621 -0.7546
 1579SOL    HW2 4557   1.278   3.305   2.640  0.0126 -0.4609 -1.1485
 1580SOL     OW 4558   2.076   4.132   3.013  0.7189  0.3416 -0.1289
 1580SOL    HW1 4559   2.063   4.101   3.107 -1.7774 -0.2666 -0.5855
 1580SOL    HW2 4560   2.084   4.053   2.953 -2.3849  0.4981 -0.9089
 1581SOL     OW 4561   2.402   4.689   3.343 -0.3146 -0.5473  0.5707
 1581SOL    HW1 4562   2.427   4.704   3.439 -1.1707 -0.5065  0.7995
 1581SOL    HW2 4563   2.343   4.764   3.313  1.4696  0.4505 -0.5729
 1582SOL     OW 4564   1.410   4.823   4.173 -0.3702  0.0651 -0.5015
 1582SOL    HW1 4565   1.347   4.897   4.196 -1.1390 -1.0030  0.9912
 1582SOL    HW2 4566   1.358   4.742   4.146  0.4132 -0.3822 -0.6851
 1583SOL     OW 4567   0.550   4.184   4.437 -0.6588 -0.7538 -0.3855
 1583SOL    HW1 4568   0.639   4.229   4.443 -1.6336  1.4120 -1.0160
 1583SOL    HW2 4569   0.540   4.118   4.511  0.4484  0.8852  1.3184
 1584SOL     OW 4570   0.471   3.038   4.374 -0.1950 -0.4736 -0.2591
 1584SOL    HW1 4571   0.497   2.942   4.379 -1.9160 -0.9460  0.4625
 1584SOL    HW2 4572   0.549   3.095   4.401  0.2197 -1.7606  1.4358
 1585SOL     OW 4573   3.620   0.404   4.813  0.7234  0.2302 -0.5304
 1585SOL    HW1 4574   3.665   0.390   4.901  0.8180 -0.9237 -0.7356
 1585SOL    HW2 4575   3.677   0.363   4.741 -0.4351 -0.8891 -0.8472
 1586SOL     OW 4576   1.974   4.586   0.294  0.7494  0.3381 -0.4147
 1586SOL    HW1 4577   1.991   4.662   0.357 -0.0515  0.7128 -0.6245
 1586SOL    HW2 4578   2.020   4.504   0.326  0.8066  0.6663  0.3604
 1587SOL     OW 4579   2.048   0.849   4.620  0.5494 -0.2291  0.2690
 1587SOL    HW1 4580   2.072   0.911   4.545  0.4902 -0.1988  0.2751
 1587SOL    HW2 4581   1.980   0.893   4.678 -0.4448 -0.8073 -0.4447
 1588SOL     OW 4582   1.756   4.887   3.742 -0.2366 -0.5548  0.3026
 1588SOL    HW1 4583   1.687   4.942   3.789 -1.4852 -0.8210 -1.1095
 1588SOL    HW2 4584   1.779   4.931   3.655  0.7331 -0.9314  0.3619
 1589SOL     OW 4585   4.707   0.238   4.588  0.0585 -0.2741 -0.3024
 1589SOL    HW1 4586   4.798   0.277   4.572  0.2453 -0.9827 -1.0749
 1589SOL    HW2 4587   4.638   0.310   4.580  0.4919  0.1275 -0.4730
 1590SOL     OW 4588   3.757   4.391   3.926  0.4247  0.5883  0.2252
 1590SOL    HW1 4589   3.855   4.412   3.926  0.4855  0.4045 -1.1271
 1590SOL    HW2 4590   3.708   4.462   3.875 -0.0822  0.4072  0.4507
 1591SOL     OW 4591   4.744   4.004   4.204 -0.4488 -0.3503  0.4732
 1591SOL    HW1 4592   4.764   3.924   4.261  0.4686  0.9104  2.0091
 1591SOL    HW2 4593   4.657   3.990   4.157  0.1569 -2.6410 -0.0872
 1592SOL     OW 4594   2.011   4.585   4.951 -0.2691  0.2174  0.0735
 1592SOL    HW1 4595   1.961   4.663   4.988 -0.9222 -0.0076 -0.3073
 1592SOL    HW2 4596   1.947   4.524   4.904  0.5347  0.5651 -1.5437
 1593SOL     OW 4597   1.099   4.773   0.064 -0.0624  0.3779 -0.5990
 1593SOL    HW1 4598   1.180   4.828   0.082  0.0890  0.2155 -0.7791
 1593SOL    HW2 4599   1.030   4.829   0.018 -0.9838  1.1808  1.6193
 1594SOL     OW 4600   1.925   4.487   2.855 -0.2442  0.2549 -0.5230
 1594SOL    HW1 4601   1.973   4.452   2.936  0.5512 -0.2258 -1.1833
 1594SOL    HW2 4602   1.906   4.584   2.867  1.1904  0.5497 -0.3531
 1595SOL     OW 4603   0.459   4.374   4.257  0.9425  0.2665 -0.0112
 1595SOL    HW1 4604   0.487   4.289   4.302  1.2320  0.8656  0.9826
 1595SOL    HW2 4605   0.540   4.427   4.233  0.7461  0.5263 -0.1002
 1596SOL     OW 4606   0.902   4.636   4.140  1.2035 -0.1508 -0.3092
 1596SOL    HW1 4607   0.898   4.676   4.232 -4.5732  1.8771 -1.0121
 1596SOL    HW2 4608   0.957   4.695   4.081 -1.5914  3.4034  0.2659
 1597SOL     OW 4609   2.314   0.048   3.358  0.3062  0.0068 -0.2243
 1597SOL    HW1 4610   2.283  -0.044   3.335 -2.9780  0.7119  0.8536
 1597SOL    HW2 4611   2.315   0.059   3.457  2.4060  0.6774 -0.2542
 1598SOL     OW 4612   4.955   3.881   4.395 -0.0533  0.1909  0.8962
 1598SOL    HW1 4613   4.931   3.867   4.491 -0.5792  1.4050  0.9701
 1598SOL    HW2 4614   4.938   3.797   4.343 -1.7899  0.1353  1.4897
 1599SOL     OW 4615   0.086   0.106   0.876 -0.1562  0.3504 -0.6865
 1599SOL    HW1 4616   0.172   0.058   0.859  0.4211  1.5462 -1.3172
 1599SOL    HW2 4617   0.030   0.104   0.793 -1.5578 -1.9289  0.2299
 1600SOL     OW 4618   1.331   4.735   2.681  0.4960 -0.1212 -0.3336
 1600SOL    HW1 4619   1.273   4.769   2.608 -1.7864  1.6617  2.1237
 1600SOL    HW2 4620   1.283   4.664   2.732  1.2344  0.0171  0.5905
 1601SOL     OW 4621   1.931   4.203   4.806  0.4961  0.1523  0.3799
 1601SOL    HW1 4622   1.990   4.219   4.727  0.5605 -1.3077  0.1144
 1601SOL    HW2 4623   1.866   4.279   4.814  1.4844  1.0869 -0.1383
 1602SOL     OW 4624   0.029   0.851   3.010 -0.3188  0.2657  0.0030
 1602SOL    HW1 4625   0.042   0.775   2.946  1.4664  0.3754  0.1892
 1602SOL    HW2 4626   0.017   0.936   2.958  1.2137  0.3695 -0.2330
 1603SOL     OW 4627   1.824   4.455   4.807  1.0879  0.3689  0.1461
 1603SOL    HW1 4628   1.755   4.483   4.873 -0.6478 -2.1184 -0.4885
 1603SOL    HW2 4629   1.803   4.496   4.718 -0.6607 -1.6717 -0.4564
 1604SOL     OW 4630   2.287   4.238   0.224 -0.2716 -0.2310  0.2109
 1604SOL    HW1 4631   2.332   4.196   0.303 -1.8303 -2.1763  0.1444
 1604SOL    HW2 4632   2.206   4.288   0.255  0.0955  0.5308 -0.0128
 1605SOL     OW 4633   4.978   4.295   3.833  0.3878  0.6677  0.0418
 1605SOL    HW1 4634   5.069   4.285   3.793 -0.0736 -1.0822 -0.6491
 1605SOL    HW2 4635   4.976   4.251   3.923  0.3976  1.2960  0.3548
 1606SOL     OW 4636   3.368   0.725   4.499 -0.1556  0.4720  0.5571
 1606SOL    HW1 4637   3.426   0.651   4.466 -0.5057  0.5094 -0.1489
 1606SOL    HW2 4638   3.425   0.799   4.535  0.2785  0.8671 -0.8855
 1607SOL     OW 4639   1.807   4.910   2.620 -0.2815  0.3109 -0.5107
 1607SOL    HW1 4640   1.867   4.831   2.606 -1.2438 -1.0734  2.3350
 1607SOL    HW2 4641   1.714   4.886   2.592 -0.3636  0.8546 -0.7142
 1608SOL     OW 4642   2.219   0.125   4.488 -0.2264  0.0677 -0.2917
 1608SOL    HW1 4643   2.138   0.144   4.432 -0.4841  1.5739  0.5602
 1608SOL    HW2 4644   2.196   0.054   4.555 -0.5299 -0.2382 -0.7080
 1609SOL     OW 4645   5.059   4.519   4.780  0.1735 -0.2629  0.1225
 1609SOL    HW1 4646   4.987   4.572   4.736  0.2822  0.5235  0.8443
 1609SOL    HW2 4647   5.054   4.424   4.751  0.1368  0.1842 -1.4167
 1610SOL     OW 4648   1.776   4.473   4.145 -0.1682  0.4281  0.5033
 1610SOL    HW1 4649   1.758   4.571   4.157  0.0065  0.3930  1.1106
 1610SOL    HW2 4650   1.693   4.428   4.112 -0.8062  0.4984  1.9392
 1611SOL     OW 4651   0.161   4.154   4.041 -0.1240 -0.4356  0.7256
 1611SOL    HW1 4652   0.107   4.171   4.124  0.5414  0.7792  0.9247
 1611SOL    HW2 4653   0.249   4.201   4.047 -0.8326  1.3596 -1.4923
 1612SOL     OW 4654   1.955   0.277   3.850  0.0472  0.4681 -0.2074
 1612SOL    HW1 4655   2.047   0.309   3.829  0.6839 -1.6750 -0.9176
 1612SOL    HW2 4656   1.888   0.343   3.815  1.2735  1.5856 -0.5215
 1613SOL     OW 4657   1.181   4.986   4.179 -0.0459 -0.4454 -0.0709
 1613SOL    HW1 4658   1.172   5.037   4.093 -0.6153  0.1520  0.3328
 1613SOL    HW2 4659   1.187   5.051   4.255 -2.4885 -0.9650  0.6183
 1614SOL     OW 4660   1.796   4.667   3.878 -0.4265 -0.0663  0.1534
 1614SOL    HW1 4661   1.796   4.753   3.827  0.8712  0.5720  1.1554
 1614SOL    HW2 4662   1.746   4.680   3.964  0.9485  0.1269  0.9495
 1615SOL     OW 4663   4.303   4.471   4.566 -0.2299 -0.0198  0.4236
 1615SOL    HW1 4664   4.354   4.469   4.651  2.7641  0.1859 -1.2513
 1615SOL    HW2 4665   4.312   4.384   4.519  0.2742  0.6753 -0.8217
 1616SOL     OW 4666   4.344   2.661   4.019 -0.1470 -0.6404  0.2051
 1616SOL    HW1 4667   4.307   2.623   4.103 -0.4688 -0.4967  0.1272
 1616SOL    HW2 4668   4.363   2.759   4.031  0.3514 -0.7452  0.2945
 1617SOL     OW 4669   4.809   0.138   3.598 -0.5534  0.1562  0.1859
 1617SOL    HW1 4670   4.756   0.178   3.673  0.3621 -1.1502  1.6048
 1617SOL    HW2 4671   4.900   0.115   3.631 -0.3174 -0.9793 -1.1824
 1618SOL     OW 4672   1.100   4.763   3.986 -0.8005 -0.1889 -0.1314
 1618SOL    HW1 4673   1.069   4.772   3.891  1.4731 -0.6023 -0.9699
 1618SOL    HW2 4674   1.108   4.854   4.027 -0.3076  0.1029 -0.8568
 1619SOL     OW 4675   0.023   4.556   3.823 -0.1759 -0.2564 -0.2797
 1619SOL    HW1 4676   0.026   4.633   3.887  1.2552 -0.1260 -0.4737
 1619SOL    HW2 4677  -0.061   4.504   3.838 -1.0657  1.1976  0.0134
 1620SOL     OW 4678   1.178   0.577   3.817 -0.1488  0.6466 -0.6989
 1620SOL    HW1 4679   1.086   0.598   3.850  0.3689  0.2869  1.0576
 1620SOL    HW2 4680   1.231   0.662   3.807  0.5163  0.6378  2.0447
 1621SOL     OW 4681   4.683   4.076   3.910 -0.3261 -0.1425 -0.2659
 1621SOL    HW1 4682   4.752   4.019   3.866  0.9286 -0.0716  1.5113
 1621SOL    HW2 4683   4.727   4.136   3.977 -2.1401 -0.2226  1.0603
 1622SOL     OW 4684   4.531   3.902   4.099  0.2584  0.3745 -0.3438
 1622SOL    HW1 4685   4.461   3.836   4.125  2.0395 -1.2381  0.6866
 1622SOL    HW2 4686   4.560   3.884   4.005 -0.1673  0.5477 -0.5094
 1623SOL     OW 4687   5.080   5.006   3.910  0.1090  0.9019 -0.4142
 1623SOL    HW1 4688   5.116   5.048   3.994  3.3505  1.3831 -1.8896
 1623SOL    HW2 4689   5.070   4.907   3.924 -0.2364  1.0881  0.7860
 1624SOL     OW 4690   5.054   0.440   3.511  0.3087  0.0609  0.0627
 1624SOL    HW1 4691   5.038   0.534   3.481 -1.4676  0.5589  2.2367
 1624SOL    HW2 4692   5.027   0.376   3.439  1.7864  1.1519 -1.5483
 1625SOL     OW 4693   1.684   3.713   3.438 -0.3959 -0.4267 -0.2399
 1625SOL    HW1 4694   1.609   3.700   3.504 -0.5311 -1.0882 -0.5144
 1625SOL    HW2 4695   1.702   3.811   3.427 -1.1685 -0.2646 -0.1124
 1626SOL     OW 4696   0.376   4.163   5.062 -0.6637  0.5022 -0.2472
 1626SOL    HW1 4697   0.322   4.204   4.989 -1.1714  0.0887 -0.1131
 1626SOL    HW2 4698   0.340   4.191   5.150 -0.9929 -0.1745 -0.1548
 1627SOL     OW 4699   1.564   4.730   3.621  0.0679  0.5032  0.1329
 1627SOL    HW1 4700   1.634   4.778   3.673  0.1670 -0.0659  0.5428
 1627SOL    HW2 4701   1.475   4.744   3.665 -0.0959  1.3077 -0.4448
 1628SOL     OW 4702   1.775   4.641   4.581 -0.6166 -0.2455 -0.2453
 1628SOL    HW1 4703   1.851   4.644   4.516 -0.0156  1.3798  0.4822
 1628SOL    HW2 4704   1.689   4.627   4.531 -0.1920  1.1064 -1.4152
 1629SOL     OW 4705   0.878   4.941   0.001  0.4993  0.0224 -0.1595
 1629SOL    HW1 4706   0.783   4.917  -0.018 -0.2432  1.3449  1.5446
 1629SOL    HW2 4707   0.911   5.005  -0.068 -0.0810  0.0711 -0.3940
 1630SOL     OW 4708   0.845   4.492   3.815 -0.2791 -0.1501 -0.4848
 1630SOL    HW1 4709   0.758   4.443   3.805  0.3337 -1.1230 -1.2415
 1630SOL    HW2 4710   0.896   4.452   3.892 -0.0265 -0.3336 -0.7444
 1631SOL     OW 4711   1.682   3.911   0.465 -0.3775  0.4764  0.0946
 1631SOL    HW1 4712   1.695   3.813   0.449 -1.0553  0.5315 -0.8714
 1631SOL    HW2 4713   1.687   3.960   0.378  0.5270  1.3809  0.6299
 1632SOL     OW 4714   2.477   4.345   0.066 -0.0206 -0.3528  0.1684
 1632SOL    HW1 4715   2.398   4.316   0.120 -0.3158 -0.7552 -0.4513
 1632SOL    HW2 4716   2.462   4.437   0.032 -0.1991 -0.4032  0.1086
 1633SOL     OW 4717   1.354   4.895   0.088 -0.0732 -0.0146 -0.1441
 1633SOL    HW1 4718   1.407   4.860   0.011  1.4342  0.4455  0.6350
 1633SOL    HW2 4719   1.373   4.839   0.169  0.6994  1.2729  0.5942
 1634SOL     OW 4720   0.854   4.997   0.283  0.1772 -0.1641  0.4917
 1634SOL    HW1 4721   0.760   5.031   0.289 -0.0689 -0.9611  1.4476
 1634SOL    HW2 4722   0.873   4.969   0.189 -0.6766 -0.3506  0.3635
 1635SOL     OW 4723   1.412   4.455   4.559  0.6856 -0.1914 -0.0433
 1635SOL    HW1 4724   1.448   4.374   4.513  1.9000  0.3873 -0.1437
 1635SOL    HW2 4725   1.438   4.537   4.508  1.9261  0.4574  1.5322
 1636SOL     OW 4726   0.782   4.902   4.606 -0.0344 -0.4854 -0.3503
 1636SOL    HW1 4727   0.861   4.875   4.661  0.7766  1.6599 -0.3872
 1636SOL    HW2 4728   0.701   4.905   4.664 -0.0843 -2.3757 -0.2405
 1637SOL     OW 4729   0.015   4.634   5.035 -0.2134  0.0237  0.6251
 1637SOL    HW1 4730   0.098   4.581   5.056  1.5987  2.4266 -0.0806
 1637SOL    HW2 4731  -0.018   4.609   4.945  0.9372  0.4182  0.0747
 1638SOL     OW 4732   1.421   5.019   3.538 -0.8317 -0.2024 -0.6205
 1638SOL    HW1 4733   1.330   5.024   3.497 -0.3247  0.3210 -1.7418
 1638SOL    HW2 4734   1.489   5.001   3.466 -0.1442 -1.6393  0.3351
 1639SOL     OW 4735   0.884   4.968   4.166  0.3034  0.1816 -0.2639
 1639SOL    HW1 4736   0.822   4.965   4.245 -0.6424 -1.1939 -1.0138
 1639SOL    HW2 4737   0.978   4.957   4.197 -0.0421 -0.1674  0.7083
 1640SOL     OW 4738   0.612   4.370   3.759 -0.3910  0.4520  0.1418
 1640SOL    HW1 4739   0.547   4.301   3.725 -1.1308  0.5442  1.3091
 1640SOL    HW2 4740   0.561   4.445   3.801  0.4897  0.3781  1.3741
 1641SOL     OW 4741   1.194   3.337   2.801 -0.2613  0.1510  0.4740
 1641SOL    HW1 4742   1.109   3.374   2.763  0.1774  0.0518 -0.6282
 1641SOL    HW2 4743   1.176   3.298   2.892 -2.1480 -2.8502 -1.0219
 1642SOL     OW 4744   0.227   0.460   3.598  0.2953 -0.2560 -0.0341
 1642SOL    HW1 4745   0.292   0.417   3.535  0.1416 -1.4440  0.5865
 1642SOL    HW2 4746   0.134   0.440   3.567  0.2128 -1.3964  0.9086
 1643SOL     OW 4747   0.081   5.077   4.148  0.0843  0.5255 -0.0162
 1643SOL    HW1 4748   0.052   4.998   4.201 -0.9102 -0.9997 -2.6607
 1643SOL    HW2 4749   0.181   5.081   4.145  0.1654  0.7218  1.9627
 1644SOL     OW 4750   2.037   5.064   3.460  0.1223  0.3559 -0.3087
 1644SOL    HW1 4751   2.057   5.141   3.400 -0.5894  1.7820  1.1981
 1644SOL    HW2 4752   2.067   5.085   3.553  0.4855 -1.4637  0.0207
 1645SOL     OW 4753   3.210   5.030   4.243 -0.2661 -0.2466 -0.8479
 1645SOL    HW1 4754   3.211   4.971   4.324  1.0408  1.2650  0.3062
 1645SOL    HW2 4755   3.160   5.114   4.263 -0.6443 -0.2057 -1.9011
 1646SOL     OW 4756   3.918   1.128   4.496  0.6363 -0.6557 -0.1102
 1646SOL    HW1 4757   3.846   1.172   4.549  0.2101 -1.1134 -0.2965
 1646SOL    HW2 4758   3.999   1.187   4.492  0.7333 -0.6791  1.1703
 1647SOL     OW 4759   0.311   4.429   4.511  0.4065  0.2535 -0.2470
 1647SOL    HW1 4760   0.392   4.374   4.529 -0.7139 -1.0273  1.1638
 1647SOL    HW2 4761   0.294   4.491   4.588 -0.5976 -0.3457  0.0334
 1648SOL     OW 4762   0.360   3.991   4.322 -0.0083 -0.1337  0.2781
 1648SOL    HW1 4763   0.432   4.043   4.367 -0.9305  0.3731  1.2242
 1648SOL    HW2 4764   0.275   4.043   4.325 -1.2317 -2.0414  2.1489
 1649SOL     OW 4765   0.168   4.571   4.324  0.4695 -0.0652 -0.2090
 1649SOL    HW1 4766   0.138   4.519   4.244 -1.0985 -1.5167  1.2557
 1649SOL    HW2 4767   0.223   4.513   4.383 -0.7359  0.0904  1.1254
 1650SOL     OW 4768   1.023   4.337   4.349 -0.0780  0.7710  0.4901
 1650SOL    HW1 4769   1.009   4.356   4.252 -1.6958 -0.5849  0.4042
 1650SOL    HW2 4770   1.101   4.275   4.360 -1.1364 -0.7467 -0.1864
 1651SOL     OW 4771   1.977   3.331   4.310  0.4290  0.3154  0.0019
 1651SOL    HW1 4772   1.903   3.360   4.249 -0.6526 -2.5686 -0.1845
 1651SOL    HW2 4773   1.979   3.391   4.390 -1.5452  0.9993 -0.4086
 1652SOL     OW 4774   1.826   4.386   2.619  0.3083 -0.2734 -0.2126
 1652SOL    HW1 4775   1.893   4.391   2.693  0.2199 -1.0404 -0.0726
 1652SOL    HW2 4776   1.810   4.478   2.581 -1.6708  0.6602  2.5310
 1653SOL     OW 4777   4.329   4.386   3.845 -0.1445  0.0568  0.0257
 1653SOL    HW1 4778   4.379   4.300   3.839 -1.3199 -0.6926  0.6976
 1653SOL    HW2 4779   4.323   4.427   3.754  1.4269  0.0391 -0.1193
 1654SOL     OW 4780   4.380   3.876   0.024 -0.1856 -0.1956 -0.1179
 1654SOL    HW1 4781   4.303   3.856  -0.036 -0.1475 -0.6132 -0.0301
 1654SOL    HW2 4782   4.463   3.889  -0.031 -0.3065  0.2150 -0.2096
 1655SOL     OW 4783   1.071   4.347   5.007  0.2209  0.1568  0.2631
 1655SOL    HW1 4784   1.029   4.434   5.032  0.1905  0.6760 -1.4484
 1655SOL    HW2 4785   1.169   4.361   4.988  0.1886 -0.1489 -0.1502
 1656SOL     OW 4786   4.133   4.670   4.499 -0.5656 -0.7470 -0.2504
 1656SOL    HW1 4787   4.201   4.602   4.527 -0.9327 -0.6129  1.0094
 1656SOL    HW2 4788   4.180   4.750   4.462 -0.0359 -0.7530  0.3929
 1657SOL     OW 4789   0.419   4.792   4.588  0.2239 -0.1331  0.4046
 1657SOL    HW1 4790   0.399   4.872   4.531  2.4672 -0.0203 -0.2911
 1657SOL    HW2 4791   0.337   4.734   4.592 -0.3059  0.2909 -2.2328
 1658SOL     OW 4792   4.682   3.711   4.779 -0.6982 -0.0173 -0.1654
 1658SOL    HW1 4793   4.593   3.668   4.794 -0.1290 -1.2505 -0.2207
 1658SOL    HW2 4794   4.749   3.642   4.753  0.4388  0.7942  0.5013
 1659SOL     OW 4795   1.541   4.371   3.717  0.5681  0.3106  0.1822
 1659SOL    HW1 4796   1.470   4.406   3.656  0.0406 -0.8030  0.1240
 1659SOL    HW2 4797   1.539   4.271   3.716  2.2090  0.2434  0.1110
 1660SOL     OW 4798   1.291   3.854   0.660  0.6156  0.6196  0.3935
 1660SOL    HW1 4799   1.364   3.921   0.675  1.5058 -0.5378  1.4168
 1660SOL    HW2 4800   1.271   3.849   0.562  2.2236  0.6514  0.0287
 1661SOL     OW 4801   0.890   3.903   0.595  0.0954  0.4209 -0.1996
 1661SOL    HW1 4802   0.847   3.931   0.680  0.7088  0.2443  0.1724
 1661SOL    HW2 4803   0.988   3.892   0.609  0.3185  1.1356 -1.1130
 1662SOL     OW 4804   0.480   3.726   4.496  0.4315 -0.0330  0.0423
 1662SOL    HW1 4805   0.383   3.711   4.477  0.2339 -0.5522  1.3791
 1662SOL    HW2 4806   0.530   3.736   4.409 -0.8337  0.4525 -0.6513
 1663SOL     OW 4807   5.005   4.826   1.341 -0.2025 -0.6720 -0.4509
 1663SOL    HW1 4808   4.951   4.881   1.278  1.3900  0.5203 -0.8403
 1663SOL    HW2 4809   5.037   4.883   1.417  1.6941 -0.9256 -0.9974
 1664SOL     OW 4810   0.154   4.616   2.920 -0.6811 -0.1756  0.2435
 1664SOL    HW1 4811   0.211   4.561   2.859 -0.5437 -1.5421  1.5533
 1664SOL    HW2 4812   0.212   4.674   2.977 -0.6615 -0.5386  0.6016
 1665SOL     OW 4813   4.688   0.235   4.866 -0.2540  0.4169  0.5497
 1665SOL    HW1 4814   4.676   0.204   4.772  0.0054  1.0848  0.2876
 1665SOL    HW2 4815   4.626   0.185   4.926 -0.5664  0.1252 -0.0082
 1666SOL     OW 4816   2.313   4.598   2.872  0.3299  0.2684 -0.0014
 1666SOL    HW1 4817   2.225   4.607   2.919  0.9785 -3.1677  2.2154
 1666SOL    HW2 4818   2.375   4.670   2.903 -0.0553 -0.4566  2.6475
 1667SOL     OW 4819   2.639   4.309   3.614 -0.4277 -0.1429  0.0960
 1667SOL    HW1 4820   2.649   4.210   3.618  0.7202 -0.0265  0.4614
 1667SOL    HW2 4821   2.543   4.334   3.624 -0.5587 -1.1495  1.5662
 1668SOL     OW 4822   1.865   4.851   5.043  0.4865 -0.1385 -0.1588
 1668SOL    HW1 4823   1.842   4.908   5.122  0.0664  0.0049 -0.3806
 1668SOL    HW2 4824   1.945   4.889   4.996 -0.0443  0.5040 -0.5458
 1669SOL     OW 4825   2.075   3.031   0.459  0.4256  0.2521 -0.4721
 1669SOL    HW1 4826   2.149   2.981   0.505  0.3773 -0.6767 -1.3568
 1669SOL    HW2 4827   2.049   3.110   0.515  0.1089 -1.0158  1.2837
 1670SOL     OW 4828   0.675   3.601   4.939 -0.0544  0.3663 -0.2102
 1670SOL    HW1 4829   0.673   3.660   5.021 -0.8760  0.2708 -0.1531
 1670SOL    HW2 4830   0.643   3.510   4.963 -0.4605  0.3840 -0.6716
 1671SOL     OW 4831   0.035   1.092   2.867 -0.3102  0.2904 -0.2586
 1671SOL    HW1 4832   0.092   1.151   2.924 -1.1410 -0.6734  1.6615
 1671SOL    HW2 4833   0.007   1.142   2.784 -0.7720  2.5023  1.1495
 1672SOL     OW 4834   0.518   4.320   0.164  0.0813 -0.2956 -0.2865
 1672SOL    HW1 4835   0.429   4.306   0.209  0.2630 -0.2648  0.0828
 1672SOL    HW2 4836   0.591   4.296   0.227  0.3523  0.2933 -0.3678
 1673SOL     OW 4837   0.869   4.548   2.694 -0.4483  0.4777  0.2133
 1673SOL    HW1 4838   0.912   4.481   2.633  0.3803  1.0834  0.1075
 1673SOL    HW2 4839   0.936   4.619   2.717 -1.4898  1.6272 -0.2184
 1674SOL     OW 4840   4.063   4.109   3.262  0.0848  0.3969 -0.3381
 1674SOL    HW1 4841   4.068   4.015   3.295 -1.4072  0.3887 -0.0359
 1674SOL    HW2 4842   4.153   4.139   3.232  1.1951 -0.1815  2.1412
 1675SOL     OW 4843   0.241   4.025   4.795 -0.7512 -0.3132 -0.2960
 1675SOL    HW1 4844   0.240   3.926   4.805  0.9665 -0.1761  2.0890
 1675SOL    HW2 4845   0.330   4.054   4.760 -1.0302  0.4284 -0.4085
 1676SOL     OW 4846   1.873   4.094   0.621  0.5738 -0.8408  0.4423
 1676SOL    HW1 4847   1.946   4.119   0.557  0.2690  0.1135  0.4497
 1676SOL    HW2 4848   1.805   4.038   0.574  0.4057 -0.2351 -0.0446
 1677SOL     OW 4849   4.404   3.995   3.452 -0.1894 -0.1708 -0.9909
 1677SOL    HW1 4850   4.333   4.032   3.513 -0.8560  0.0134 -1.8523
 1677SOL    HW2 4851   4.468   4.068   3.428  0.7564 -0.5214  0.4091
 1678SOL     OW 4852   0.075   4.832   4.282  0.0908 -0.1598  0.5912
 1678SOL    HW1 4853   0.020   4.858   4.361 -0.7251  1.2870 -0.4153
 1678SOL    HW2 4854   0.133   4.754   4.307 -1.8963 -1.3311  1.8912
 1679SOL     OW 4855   0.673   0.215   4.374  0.6230  0.6076  0.1018
 1679SOL    HW1 4856   0.610   0.175   4.441  0.4380  0.2259 -0.3004
 1679SOL    HW2 4857   0.651   0.312   4.363  0.3404  0.5621  0.2390
 1680SOL     OW 4858   2.887   4.266   0.275  0.3987  0.0826 -0.2922
 1680SOL    HW1 4859   2.913   4.170   0.286 -1.0570 -0.3892 -0.6879
 1680SOL    HW2 4860   2.799   4.282   0.320 -0.2215  0.7959 -1.6942
 1681SOL     OW 4861   0.523   3.967   4.616  0.2426 -0.0964  0.4502
 1681SOL    HW1 4862   0.535   3.976   4.714 -0.4756 -1.2684  0.6653
 1681SOL    HW2 4863   0.505   3.871   4.593 -1.7070  0.4718 -0.5883
 1682SOL     OW 4864   1.372   4.902   3.797 -0.0062 -0.4896 -0.1913
 1682SOL    HW1 4865   1.331   4.814   3.772 -0.0238 -0.8318  0.9740
 1682SOL    HW2 4866   1.379   4.960   3.716  1.2016 -2.0376 -1.2500
 1683SOL     OW 4867   1.287   4.344   0.171 -0.2582  0.3682 -0.4717
 1683SOL    HW1 4868   1.223   4.418   0.190 -1.5442 -0.0236 -2.8364
 1683SOL    HW2 4869   1.336   4.363   0.086 -0.1605 -1.1751 -0.8018
 1684SOL     OW 4870   0.736   4.451   4.882  0.2879 -0.1078  0.1653
 1684SOL    HW1 4871   0.797   4.482   4.956  0.6815  0.7735 -0.5078
 1684SOL    HW2 4872   0.786   4.388   4.823 -0.4908 -2.0546  1.4918
 1685SOL     OW 4873   0.960   4.712   4.716  0.3953  0.2989  0.1183
 1685SOL    HW1 4874   1.038   4.712   4.779 -0.7836 -1.4775  1.6936
 1685SOL    HW2 4875   0.981   4.653   4.638  0.6717 -0.0808  0.4739
 1686SOL     OW 4876   2.876   4.424   3.553  0.2710  0.1898 -0.2119
 1686SOL    HW1 4877   2.790   4.376   3.569  0.2312  0.1306 -0.5979
 1686SOL    HW2 4878   2.875   4.466   3.462  0.8685 -0.2792 -0.4432
 1687SOL     OW 4879   2.972   4.803   0.034 -0.9830 -0.4213 -0.1996
 1687SOL    HW1 4880   3.044   4.740   0.063 -1.1185 -0.2752  0.4739
 1687SOL    HW2 4881   2.997   4.844  -0.054  0.2276  0.3349  0.4657
 1688SOL     OW 4882   0.201   3.658   4.129  0.3889 -0.3668 -0.0919
 1688SOL    HW1 4883   0.276   3.654   4.063  1.6612  0.1910  1.2740
 1688SOL    HW2 4884   0.191   3.570   4.174 -0.6348 -0.8188 -1.1541
 1689SOL     OW 4885   1.637   3.481   4.409 -0.1041  0.3561  0.5222
 1689SOL    HW1 4886   1.715   3.541   4.389  0.7574 -1.5113 -2.4239
 1689SOL    HW2 4887   1.668   3.402   4.461 -0.3858  0.4646  0.8529
 1690SOL     OW 4888   1.030   4.016   3.983  0.2947 -0.4653 -0.2048
 1690SOL    HW1 4889   0.956   4.016   4.050  0.4438 -0.6440 -0.0385
 1690SOL    HW2 4890   1.108   3.965   4.020  0.4172 -0.4696 -0.4689
 1691SOL     OW 4891   0.482   0.780   3.413  0.1397  0.3624  0.0844
 1691SOL    HW1 4892   0.520   0.844   3.346  0.4309 -0.6309 -0.7146
 1691SOL    HW2 4893   0.551   0.759   3.482  1.2806 -1.7738 -1.6016
 1692SOL     OW 4894   1.019   4.804   3.164  0.7191 -0.3003  0.1610
 1692SOL    HW1 4895   0.958   4.834   3.238 -0.1630 -1.1640 -0.1993
 1692SOL    HW2 4896   0.972   4.814   3.076  1.8571  0.9711 -0.3436
 1693SOL     OW 4897   0.626   4.595   4.600  0.5280  0.3989  0.0491
 1693SOL    HW1 4898   0.556   4.666   4.592  0.3086  0.0420 -1.4638
 1693SOL    HW2 4899   0.647   4.580   4.697 -3.0216 -0.9492  0.7670
 1694SOL     OW 4900   0.479   4.452   4.978  1.0364  0.4157  0.0956
 1694SOL    HW1 4901   0.488   4.384   5.051  0.7534 -0.4766 -0.6840
 1694SOL    HW2 4902   0.569   4.471   4.939  1.0578  0.1693  0.0257
 1695SOL     OW 4903   5.006   5.043   2.391  0.5194  0.4678 -0.6643
 1695SOL    HW1 4904   4.993   5.142   2.391 -0.4256  0.3546 -1.3282
 1695SOL    HW2 4905   5.059   5.017   2.472  0.2709  1.4438 -0.1684
 1696SOL     OW 4906   1.850   0.520   0.478 -0.3905  0.1515 -0.1215
 1696SOL    HW1 4907   1.887   0.429   0.497  1.1735  0.7118 -0.3351
 1696SOL    HW2 4908   1.877   0.582   0.551  0.2879  0.8903 -0.9855
 1697SOL     OW 4909   1.481   2.895   1.060  0.3162  0.1565 -0.0934
 1697SOL    HW1 4910   1.557   2.830   1.070 -0.4990 -0.7628  0.2402
 1697SOL    HW2 4911   1.394   2.846   1.065 -0.3051  1.0938 -1.2477
 1698SOL     OW 4912   0.902   1.142   0.164 -0.3301 -0.6480 -0.4651
 1698SOL    HW1 4913   0.870   1.075   0.097 -1.5815  1.7058 -2.3913
 1698SOL    HW2 4914   0.842   1.140   0.244 -0.7226 -1.4034 -0.7670
 1699SOL     OW 4915   3.928   1.080   4.921 -0.0192 -0.2828  0.0577
 1699SOL    HW1 4916   3.929   0.982   4.900 -0.2437  0.4240 -4.0322
 1699SOL    HW2 4917   4.022   1.114   4.920 -0.0984 -0.0631 -1.0490
 1700SOL     OW 4918   4.418   2.404   4.545  0.3513 -0.2343  0.2794
 1700SOL    HW1 4919   4.416   2.336   4.618  3.3688  0.3694  1.1174
 1700SOL    HW2 4920   4.508   2.403   4.502  0.7581  3.4657  0.6852
 1701SOL     OW 4921   2.475   0.023   1.252 -0.1349  0.3212  0.1045
 1701SOL    HW1 4922   2.415   0.076   1.312 -0.1819 -1.4743  1.7254
 1701SOL    HW2 4923   2.571   0.047   1.270 -0.1164 -0.5361  1.3172
 1702SOL     OW 4924   3.761   0.638   3.800  0.2893 -0.3024 -0.3108
 1702SOL    HW1 4925   3.701   0.711   3.832  0.4819 -0.2201 -0.1333
 1702SOL    HW2 4926   3.781   0.651   3.703  0.2398 -0.1780 -0.3038
 1703SOL     OW 4927   3.397   0.031   1.606  0.2653 -0.4024 -0.0658
 1703SOL    HW1 4928   3.311  -0.004   1.570  1.1065 -0.5227 -2.1218
 1703SOL    HW2 4929   3.381   0.079   1.692 -2.0913  0.8951 -1.1481
 1704SOL     OW 4930   2.742   1.396   3.054 -0.4024  0.0821  0.0672
 1704SOL    HW1 4931   2.784   1.480   3.088 -2.3244  1.0184  0.2623
 1704SOL    HW2 4932   2.749   1.325   3.123 -0.1392  0.5475  0.5252
 1705SOL     OW 4933   2.435   0.084   4.276 -0.1877 -0.1518  0.0826
 1705SOL    HW1 4934   2.378   0.085   4.358 -2.6822 -0.8179 -1.5207
 1705SOL    HW2 4935   2.475  -0.007   4.265 -1.4421 -0.6832 -0.3833
 1706SOL     OW 4936   2.195   0.417   1.838 -0.1563 -0.4321  0.0699
 1706SOL    HW1 4937   2.131   0.364   1.781 -0.5508 -0.3611  0.4372
 1706SOL    HW2 4938   2.180   0.514   1.822  0.1856 -0.4215 -0.1907
 1707SOL     OW 4939   3.682   1.807   0.585 -0.1556  0.1985  0.2178
 1707SOL    HW1 4940   3.681   1.795   0.486 -1.8411 -2.6064  0.4812
 1707SOL    HW2 4941   3.718   1.898   0.607 -1.3102  1.5855 -2.9999
 1708SOL     OW 4942   2.478   2.511   1.887 -0.1419 -0.0507  0.3846
 1708SOL    HW1 4943   2.390   2.486   1.926 -0.0818 -1.5947 -0.3808
 1708SOL    HW2 4944   2.550   2.500   1.955 -0.3300 -0.4958  0.5141
 1709SOL     OW 4945   3.149   0.600   2.095  0.0327 -0.1691  0.0479
 1709SOL    HW1 4946   3.115   0.686   2.133  1.3080  0.1899  0.4233
 1709SOL    HW2 4947   3.139   0.602   1.995 -2.0764 -0.5702  0.1855
 1710SOL     OW 4948   3.633   0.818   4.648 -0.4361  0.4072 -0.1016
 1710SOL    HW1 4949   3.709   0.805   4.584  0.0846  2.3168  0.0802
 1710SOL    HW2 4950   3.670   0.838   4.739 -1.1313  1.8248 -0.1156
 1711SOL     OW 4951   2.008   0.219   4.882  0.3689 -0.3123  0.2315
 1711SOL    HW1 4952   1.992   0.277   4.963  0.1360 -0.6313  0.4175
 1711SOL    HW2 4953   2.030   0.277   4.804 -0.5566  0.0911  0.2455
 1712SOL     OW 4954   4.161   4.657   1.481 -0.1719 -0.6702  0.2302
 1712SOL    HW1 4955   4.192   4.701   1.396 -1.9157 -0.1301 -0.1867
 1712SOL    HW2 4956   4.238   4.645   1.543  0.7356  1.1673 -0.4564
 1713SOL     OW 4957   0.847   0.947   1.120 -0.0055  0.2351 -0.4296
 1713SOL    HW1 4958   0.759   0.901   1.109 -0.3043  1.1477 -2.3764
 1713SOL    HW2 4959   0.921   0.880   1.108 -0.3119 -0.9446  3.1418
 1714SOL     OW 4960   1.472   0.177   0.783 -0.0534 -0.1682 -0.0060
 1714SOL    HW1 4961   1.554   0.168   0.726 -0.6900 -1.6465 -0.7407
 1714SOL    HW2 4962   1.417   0.254   0.750  1.5772  1.6601  1.2679
 1715SOL     OW 4963   2.863   0.972   1.251  0.6917  0.3041 -0.1111
 1715SOL    HW1 4964   2.765   0.956   1.237  0.7956 -1.1043  0.5943
 1715SOL    HW2 4965   2.876   1.056   1.303 -0.0781  1.1067 -1.1785
 1716SOL     OW 4966   2.660   0.679   4.361  0.4213  0.4416 -0.6911
 1716SOL    HW1 4967   2.742   0.629   4.332  0.2680 -1.1810  1.3856
 1716SOL    HW2 4968   2.585   0.614   4.374 -0.1162  1.3417  1.0013
 1717SOL     OW 4969   4.091   4.925   0.742 -0.2814 -0.3020  0.0526
 1717SOL    HW1 4970   4.100   5.016   0.782 -1.3206 -0.1764  0.0193
 1717SOL    HW2 4971   4.055   4.862   0.810  1.0432 -0.8512  0.2668
 1718SOL     OW 4972   3.845   1.744   1.539  0.1080 -0.2549  0.8169
 1718SOL    HW1 4973   3.854   1.728   1.441  0.5598 -0.0502  0.8190
 1718SOL    HW2 4974   3.915   1.810   1.568 -1.9957  2.1505  0.7162
 1719SOL     OW 4975   3.524   1.724   1.188 -0.3831  0.1210  0.4480
 1719SOL    HW1 4976   3.443   1.708   1.245 -0.3517  0.2483  0.5281
 1719SOL    HW2 4977   3.502   1.791   1.117 -0.0573  0.9470  1.1055
 1720SOL     OW 4978   1.510   1.446   3.846  0.4409  0.2272 -0.2069
 1720SOL    HW1 4979   1.413   1.428   3.859  0.0529 -0.4543 -3.2678
 1720SOL    HW2 4980   1.555   1.457   3.935 -2.4881  1.1117  1.2692
 1721SOL     OW 4981   2.864   0.559   0.758 -0.3750  0.1825  0.3736
 1721SOL    HW1 4982   2.797   0.584   0.687  0.0350  1.3396  0.3779
 1721SOL    HW2 4983   2.917   0.640   0.784  2.0006 -0.9535 -0.6278
 1722SOL     OW 4984   4.032   0.844   0.440 -0.0558  0.4320 -0.4175
 1722SOL    HW1 4985   4.005   0.840   0.536 -2.3566  1.3442 -0.9556
 1722SOL    HW2 4986   4.022   0.754   0.399 -3.1763  0.8223 -0.7369
 1723SOL     OW 4987   2.106   1.720   2.791  0.1588  0.5742 -0.0301
 1723SOL    HW1 4988   2.102   1.628   2.829  1.5031  0.4037 -0.2497
 1723SOL    HW2 4989   2.158   1.719   2.706  2.4563  1.9158  1.2680
 1724SOL     OW 4990   3.167   1.464   1.056  0.1114 -0.1738  0.4146
 1724SOL    HW1 4991   3.245   1.422   1.010  1.6100 -0.7079  3.2154
 1724SOL    HW2 4992   3.088   1.403   1.052  0.2761 -0.3205 -1.1095
 1725SOL     OW 4993   2.952   1.576   2.885 -0.1085 -0.3395  0.2324
 1725SOL    HW1 4994   2.922   1.670   2.898  0.7288 -0.1148  0.5985
 1725SOL    HW2 4995   2.905   1.536   2.806  0.8385  0.9660 -1.0295
 1726SOL     OW 4996   3.070   0.317   0.144 -0.2538 -0.3417 -1.0248
 1726SOL    HW1 4997   3.004   0.242   0.149 -0.2008 -0.3135  1.0088
 1726SOL    HW2 4998   3.026   0.398   0.104 -0.8475 -0.9191 -1.5469
 1727SOL     OW 4999   3.000   1.416   1.253 -0.3114  0.1438 -0.5802
 1727SOL    HW1 5000   3.071   1.432   1.184 -0.7581 -1.2504 -1.4226
 1727SOL    HW2 5001   3.025   1.461   1.338  1.6784 -0.4619 -0.7906
 1728SOL     OW 5002   1.560   1.485   1.192 -0.2068 -0.5282  0.1448
 1728SOL    HW1 5003   1.621   1.407   1.181  0.1483 -0.1097 -0.9737
 1728SOL    HW2 5004   1.478   1.471   1.138  0.0265  0.0362 -0.3660
 1729SOL     OW 5005   3.171   0.838   1.621 -0.3300  0.1673  0.7751
 1729SOL    HW1 5006   3.176   0.753   1.568 -0.7572  0.9880 -0.6200
 1729SOL    HW2 5007   3.090   0.889   1.594  1.4129  2.4007 -0.5573
 1730SOL     OW 5008   2.232   3.995   2.700 -0.0024 -0.1024  0.1374
 1730SOL    HW1 5009   2.143   3.953   2.719 -1.3088  2.4638  0.1039
 1730SOL    HW2 5010   2.299   3.964   2.769 -0.9110 -1.9823  0.2301
 1731SOL     OW 5011   3.612   2.228   1.167  0.5214  0.0272  0.0581
 1731SOL    HW1 5012   3.626   2.295   1.240 -0.0640 -1.1524  1.2776
 1731SOL    HW2 5013   3.514   2.216   1.151  0.6389  0.1231 -0.8027
 1732SOL     OW 5014   4.821   1.307   0.551 -0.6595 -0.4655 -0.9253
 1732SOL    HW1 5015   4.847   1.214   0.525  0.7224 -0.9807  1.9546
 1732SOL    HW2 5016   4.894   1.348   0.606 -1.1534  2.4462 -2.2253
 1733SOL     OW 5017   2.098   0.448   0.738  0.3464 -0.2456  0.1322
 1733SOL    HW1 5018   2.042   0.496   0.805 -2.1717 -0.0085 -1.9734
 1733SOL    HW2 5019   2.183   0.498   0.723 -0.3584  1.2761  1.0187
 1734SOL     OW 5020   4.032   0.157   1.023 -0.4177 -0.9568 -0.2989
 1734SOL    HW1 5021   4.026   0.118   1.115 -2.6751  0.9195  0.4240
 1734SOL    HW2 5022   4.042   0.257   1.030  0.5594 -0.8887 -2.1233
 1735SOL     OW 5023   3.462   1.657   1.562  0.1723 -0.0807  0.0694
 1735SOL    HW1 5024   3.535   1.717   1.595 -0.8851  1.1244  0.3080
 1735SOL    HW2 5025   3.500   1.568   1.539  1.4622  0.0145  1.6480
 1736SOL     OW 5026   3.231   0.876   0.297  0.2125  0.2079 -0.5458
 1736SOL    HW1 5027   3.190   0.885   0.206  0.4524  1.4612 -0.5508
 1736SOL    HW2 5028   3.324   0.839   0.288  0.4541  0.8730 -0.8784
 1737SOL     OW 5029   3.993   4.337   1.310 -0.4166  0.4009 -0.5657
 1737SOL    HW1 5030   4.019   4.394   1.388 -2.8213  1.4020 -0.4024
 1737SOL    HW2 5031   3.993   4.241   1.337  3.8055  0.1434 -0.8755
 1738SOL     OW 5032   2.405   1.448   0.770 -0.1454  0.2459  0.0653
 1738SOL    HW1 5033   2.374   1.434   0.864  1.1995 -1.6682  0.2964
 1738SOL    HW2 5034   2.494   1.404   0.758  0.0557  1.0999 -1.9141
 1739SOL     OW 5035   3.527   4.085   0.705 -0.1179  0.5044  0.5007
 1739SOL    HW1 5036   3.437   4.129   0.704 -0.8611 -0.9091 -1.5928
 1739SOL    HW2 5037   3.571   4.099   0.616  0.4323 -1.3007  0.4495
 1740SOL     OW 5038   3.117   0.902   0.033 -0.0752 -0.1721 -0.1685
 1740SOL    HW1 5039   3.153   0.875  -0.057 -1.6397 -0.0500 -0.8705
 1740SOL    HW2 5040   3.097   1.000   0.032 -2.3159 -0.5649 -0.5618
 1741SOL     OW 5041   0.395   0.709   0.828 -0.0866 -0.2666 -0.3882
 1741SOL    HW1 5042   0.485   0.665   0.828  0.2766  0.4353  0.6118
 1741SOL    HW2 5043   0.354   0.702   0.919 -1.6059 -1.6366 -1.1374
 1742SOL     OW 5044   2.838   1.318   1.760  0.6409 -0.0163 -0.7492
 1742SOL    HW1 5045   2.852   1.221   1.778 -0.7675 -0.3132 -1.0859
 1742SOL    HW2 5046   2.875   1.372   1.835 -1.8131 -1.0226  1.3418
 1743SOL     OW 5047   2.413   0.347   5.026  0.6179 -0.3034  0.1043
 1743SOL    HW1 5048   2.393   0.281   4.954 -0.8390  0.3110 -0.0725
 1743SOL    HW2 5049   2.384   0.310   5.115  2.6092 -1.1525  0.4624
 1744SOL     OW 5050   3.935   0.692   2.309  0.4369 -0.2203 -0.0486
 1744SOL    HW1 5051   4.004   0.623   2.287 -0.1313 -0.8214  0.0293
 1744SOL    HW2 5052   3.888   0.721   2.225 -1.5737 -2.3472  0.2543
 1745SOL     OW 5053   4.195   1.649   0.929 -0.2867  0.4290 -0.6765
 1745SOL    HW1 5054   4.223   1.589   0.854 -0.9557  1.0613 -1.4507
 1745SOL    HW2 5055   4.096   1.639   0.944  0.0100 -0.6102  0.9678
 1746SOL     OW 5056   3.732   4.692   1.493  0.3355 -0.3223 -0.2183
 1746SOL    HW1 5057   3.739   4.616   1.428 -0.2250 -1.1731  0.6944
 1746SOL    HW2 5058   3.653   4.677   1.553  0.8521  0.4378  0.6713
 1747SOL     OW 5059   2.409   0.898   4.830 -0.1923 -0.3779  0.0066
 1747SOL    HW1 5060   2.489   0.855   4.788 -0.3521 -1.7114  1.0185
 1747SOL    HW2 5061   2.433   0.931   4.921 -0.4769  0.3254 -0.1699
 1748SOL     OW 5062   2.515   0.962   3.560 -0.3928 -0.0474 -0.8183
 1748SOL    HW1 5063   2.573   0.912   3.625 -0.2831  0.1642 -0.7541
 1748SOL    HW2 5064   2.537   0.932   3.467  0.6435  0.8573 -0.8926
 1749SOL     OW 5065   3.701   0.970   4.357  0.1779 -0.6996  0.0394
 1749SOL    HW1 5066   3.625   1.010   4.408 -0.7858 -0.3854 -1.5791
 1749SOL    HW2 5067   3.784   1.023   4.374 -0.5595  0.5657 -0.2260
 1750SOL     OW 5068   3.194   0.592   1.539 -0.1728 -0.0340  0.3351
 1750SOL    HW1 5069   3.292   0.575   1.553 -0.5123 -1.7080  0.9961
 1750SOL    HW2 5070   3.172   0.584   1.442  0.3102  0.1010  0.2139
 1751SOL     OW 5071   1.550   1.907   4.173 -0.3815 -0.2301  0.0294
 1751SOL    HW1 5072   1.542   1.821   4.123  1.0772 -0.9704  0.9943
 1751SOL    HW2 5073   1.460   1.936   4.205 -0.6170 -2.8012  1.9554
 1752SOL     OW 5074   4.471   1.855   0.600 -0.0960  0.0135  0.2080
 1752SOL    HW1 5075   4.500   1.929   0.539  0.1263  0.1422  0.4685
 1752SOL    HW2 5076   4.469   1.888   0.694 -1.3202  0.0721  0.1766
 1753SOL     OW 5077   2.231   0.947   1.586 -0.1626  0.2462 -0.2581
 1753SOL    HW1 5078   2.157   1.004   1.550  0.0462  1.5167  1.1568
 1753SOL    HW2 5079   2.318   0.974   1.544 -0.2091  0.2785 -0.3321
 1754SOL     OW 5080   1.964   1.841   0.764 -0.1484  0.0561 -0.1526
 1754SOL    HW1 5081   2.058   1.853   0.733 -0.5528  0.3558 -1.3087
 1754SOL    HW2 5082   1.933   1.925   0.808 -0.0077  0.1002 -0.1368
 1755SOL     OW 5083   3.839   0.558   1.508  0.2970  0.1418  0.4552
 1755SOL    HW1 5084   3.811   0.526   1.598 -0.2768 -2.5512 -0.5911
 1755SOL    HW2 5085   3.915   0.502   1.475  0.5136  1.0912 -0.7258
 1756SOL     OW 5086   4.280   1.668   1.472  0.3602  0.6121 -0.3130
 1756SOL    HW1 5087   4.244   1.648   1.380 -0.9943  0.3514  0.2431
 1756SOL    HW2 5088   4.326   1.588   1.509 -1.1158 -0.0656  0.1269
 1757SOL     OW 5089   2.877   0.965   0.363 -0.3006 -0.2784  0.3768
 1757SOL    HW1 5090   2.956   1.022   0.384  0.9368 -2.0676  0.7351
 1757SOL    HW2 5091   2.895   0.910   0.282 -1.2430 -0.5822  0.3550
 1758SOL     OW 5092   3.949   0.100   0.754  0.0534 -0.0818 -0.4906
 1758SOL    HW1 5093   4.005   0.169   0.707  2.3427 -1.9109 -0.6587
 1758SOL    HW2 5094   3.975   0.098   0.851 -1.6793  0.8298  0.0285
 1759SOL     OW 5095   2.432   0.540   1.205 -0.1835 -0.3237 -0.1522
 1759SOL    HW1 5096   2.357   0.490   1.162  1.5047 -1.9113 -1.3813
 1759SOL    HW2 5097   2.507   0.551   1.141  1.4200 -0.4750  1.5994
 1760SOL     OW 5098   2.771   1.226   0.998 -0.7464 -0.1000 -0.1286
 1760SOL    HW1 5099   2.867   1.210   1.022 -1.3960 -0.5716  2.3834
 1760SOL    HW2 5100   2.723   1.138   0.994 -0.8443 -0.0081 -2.7599
 1761SOL     OW 5101   2.328   1.027   4.598 -0.2405 -0.3118  0.4260
 1761SOL    HW1 5102   2.394   1.099   4.579  1.4221 -1.9106 -0.0660
 1761SOL    HW2 5103   2.348   0.986   4.687  1.0677 -2.4685 -0.7916
 1762SOL     OW 5104   4.917   0.358   1.042  0.9936  0.1295 -0.1708
 1762SOL    HW1 5105   4.901   0.370   1.140 -0.1307 -0.1391 -0.3168
 1762SOL    HW2 5106   5.011   0.387   1.021  0.9309  1.1501  0.8084
 1763SOL     OW 5107   1.615   3.725   0.938 -0.2209  0.1881  0.5179
 1763SOL    HW1 5108   1.541   3.786   0.968  0.0459  0.0118  1.5967
 1763SOL    HW2 5109   1.637   3.661   1.012 -0.0973 -0.8424 -0.3778
 1764SOL     OW 5110   2.934   0.938   2.400  0.3851 -0.2823  0.3284
 1764SOL    HW1 5111   3.013   0.994   2.424  1.1896 -1.1550 -0.1855
 1764SOL    HW2 5112   2.948   0.897   2.310 -0.2235 -1.1996  0.6304
 1765SOL     OW 5113   2.159   0.449   1.125  0.3776 -0.4715  0.1824
 1765SOL    HW1 5114   2.155   0.547   1.143 -1.2502 -0.1217 -1.6518
 1765SOL    HW2 5115   2.097   0.427   1.049 -0.7387 -3.2026  1.7414
 1766SOL     OW 5116   3.324   0.893   0.657 -0.1065 -0.1829 -0.5883
 1766SOL    HW1 5117   3.384   0.813   0.654 -1.3651 -1.1534 -0.7777
 1766SOL    HW2 5118   3.248   0.879   0.593 -1.3253  0.3464  0.6917
 1767SOL     OW 5119   2.171   0.927   0.504 -0.3508  0.0614  0.1600
 1767SOL    HW1 5120   2.245   0.894   0.445  0.7764  2.2709  0.2354
 1767SOL    HW2 5121   2.131   1.010   0.465 -0.3987  0.8870  1.8839
 1768SOL     OW 5122   3.173   0.246   0.687  0.5113 -0.5185  0.0809
 1768SOL    HW1 5123   3.241   0.319   0.679  3.1025 -2.6566  1.0912
 1768SOL    HW2 5124   3.085   0.278   0.652  1.7684  2.7053 -0.4270
 1769SOL     OW 5125   2.546   4.167   0.821 -0.2150 -0.7030  0.0974
 1769SOL    HW1 5126   2.585   4.251   0.784  0.1355 -0.5639  0.7776
 1769SOL    HW2 5127   2.448   4.164   0.800 -0.2288 -0.1343  0.0610
 1770SOL     OW 5128   4.072   1.930   0.285  0.4853 -0.1513  0.0061
 1770SOL    HW1 5129   4.014   1.849   0.292 -2.1978  1.7262  1.6340
 1770SOL    HW2 5130   4.125   1.941   0.369  1.3475 -0.5321 -0.4773
 1771SOL     OW 5131   3.566   1.463   0.773 -0.3474  0.0386 -0.1980
 1771SOL    HW1 5132   3.608   1.552   0.792 -1.6726  0.7100 -0.3437
 1771SOL    HW2 5133   3.527   1.426   0.857 -1.1622  0.3272 -0.4457
 1772SOL     OW 5134   2.684   0.744   4.933 -0.0107 -0.3767  0.0165
 1772SOL    HW1 5135   2.689   0.757   4.834  0.3670  0.7706  0.1735
 1772SOL    HW2 5136   2.607   0.684   4.955 -1.5339  1.1912 -0.8207
 1773SOL     OW 5137   2.719   0.353   0.874 -0.4707  0.2118 -0.2984
 1773SOL    HW1 5138   2.704   0.280   0.807 -0.6770  1.0337 -1.1731
 1773SOL    HW2 5139   2.784   0.420   0.837 -1.8245  1.5350 -0.4036
 1774SOL     OW 5140   3.630   1.468   1.181  0.3457  0.4003 -0.2320
 1774SOL    HW1 5141   3.586   1.558   1.177  0.7109  0.5342 -1.9576
 1774SOL    HW2 5142   3.728   1.480   1.197 -0.0025  0.1297  2.7938
 1775SOL     OW 5143   1.613   0.559   0.323  0.5707  0.0960  0.4258
 1775SOL    HW1 5144   1.706   0.526   0.340  1.1839  1.9207  0.7416
 1775SOL    HW2 5145   1.612   0.658   0.321 -1.1854  0.1008 -0.7873
 1776SOL     OW 5146   3.263   1.233   0.797  0.3077  0.1485 -0.3919
 1776SOL    HW1 5147   3.268   1.332   0.790  1.9213  0.3133  2.0827
 1776SOL    HW2 5148   3.318   1.192   0.724 -0.1366  1.0473 -1.2503
 1777SOL     OW 5149   2.300   0.748   4.435  0.4970  0.1320 -0.3193
 1777SOL    HW1 5150   2.293   0.801   4.519 -1.2724  0.3737 -0.5825
 1777SOL    HW2 5151   2.349   0.802   4.366  3.2598 -0.6287  0.9296
 1778SOL     OW 5152   2.334   0.206   1.442 -0.0356  0.0317  0.0459
 1778SOL    HW1 5153   2.298   0.202   1.535 -0.1924 -0.2146 -0.0254
 1778SOL    HW2 5154   2.416   0.263   1.441  0.5211 -0.7308  0.5217
 1779SOL     OW 5155   1.091   0.395   0.683  0.4155  0.9775 -0.1072
 1779SOL    HW1 5156   1.186   0.402   0.715  0.0545  0.4103  1.1760
 1779SOL    HW2 5157   1.058   0.301   0.698  0.1134  0.7506 -1.9371
 1780SOL     OW 5158   1.444   4.750   0.329 -0.2970  0.4690  0.2186
 1780SOL    HW1 5159   1.509   4.825   0.316 -0.4818  0.6186  0.1475
 1780SOL    HW2 5160   1.399   4.760   0.418  1.8399 -1.2218  1.6037
 1781SOL     OW 5161   2.865   0.480   1.296  0.7814  0.7027  0.0939
 1781SOL    HW1 5162   2.935   0.551   1.308 -0.8602  2.3681  0.3011
 1781SOL    HW2 5163   2.844   0.440   1.385  1.4102  0.2180  0.0363
 1782SOL     OW 5164   3.505   2.212   1.673  0.0103 -1.0321  0.3887
 1782SOL    HW1 5165   3.502   2.238   1.769  1.2393  0.8821 -0.0369
 1782SOL    HW2 5166   3.420   2.238   1.628 -0.1871 -1.0410  0.7580
 1783SOL     OW 5167   4.487   0.330   0.387  0.3994 -0.1211 -0.0212
 1783SOL    HW1 5168   4.473   0.428   0.376  1.1897  0.0392  0.3096
 1783SOL    HW2 5169   4.551   0.314   0.462  0.6301 -0.8691 -0.3684
 1784SOL     OW 5170   4.082   3.359   1.636  0.0740  0.3174 -0.0584
 1784SOL    HW1 5171   4.041   3.371   1.726 -0.0869 -0.0895 -0.0776
 1784SOL    HW2 5172   4.067   3.441   1.581  1.2190  1.0577  0.6930
 1785SOL     OW 5173   2.205   0.120   0.457  0.0532 -0.1174  0.1450
 1785SOL    HW1 5174   2.150   0.043   0.425 -0.2051 -0.4287  1.3227
 1785SOL    HW2 5175   2.249   0.097   0.543  0.7268  0.7235  0.0381
 1786SOL     OW 5176   3.827   2.079   1.355  0.0706  0.3120  0.3469
 1786SOL    HW1 5177   3.742   2.066   1.407 -0.2793  0.9706 -0.0459
 1786SOL    HW2 5178   3.818   2.036   1.266  0.5723 -0.5837  0.7139
 1787SOL     OW 5179   2.660   1.206   0.579  0.5588  0.4120 -0.1699
 1787SOL    HW1 5180   2.674   1.288   0.634 -0.7859  0.0027  0.8346
 1787SOL    HW2 5181   2.655   1.126   0.639  3.3530 -0.6852 -1.2185
 1788SOL     OW 5182   2.783   0.536   0.238 -0.2018  0.6870  0.6032
 1788SOL    HW1 5183   2.737   0.507   0.154  0.0739 -2.0411  1.3079
 1788SOL    HW2 5184   2.820   0.628   0.225 -1.1793  0.8170 -1.8277
 1789SOL     OW 5185   3.949   2.121   1.738 -0.6967 -0.5886  0.0893
 1789SOL    HW1 5186   3.889   2.195   1.708 -0.5612 -1.0041 -1.2830
 1789SOL    HW2 5187   4.036   2.126   1.688 -0.7419 -1.7501 -0.1275
 1790SOL     OW 5188   2.829   1.565   2.330 -0.0150 -0.1189 -0.6040
 1790SOL    HW1 5189   2.925   1.589   2.318 -0.2463  1.8334  0.8314
 1790SOL    HW2 5190   2.804   1.576   2.426 -1.9354  0.6182 -1.1344
 1791SOL     OW 5191   4.322   1.603   2.671 -0.1042 -0.0280  0.3010
 1791SOL    HW1 5192   4.248   1.539   2.694  0.3405 -0.9760 -0.7640
 1791SOL    HW2 5193   4.381   1.561   2.602  0.3648  1.4469 -0.2319
 1792SOL     OW 5194   3.336   0.445   0.659 -0.6539  0.1581 -0.4958
 1792SOL    HW1 5195   3.309   0.538   0.631  0.3372  0.3956 -0.6979
 1792SOL    HW2 5196   3.400   0.408   0.593 -1.0784 -0.6986 -0.4339
 1793SOL     OW 5197   2.779   0.298   0.372 -0.0521 -0.5376  0.2018
 1793SOL    HW1 5198   2.830   0.238   0.311 -0.3206 -1.0443  0.4645
 1793SOL    HW2 5199   2.780   0.391   0.336 -0.8842 -0.9674 -1.0176
 1794SOL     OW 5200   3.792   0.990   1.921  0.3457  0.4246 -0.0179
 1794SOL    HW1 5201   3.806   0.969   1.824 -0.5880 -0.0503 -0.0606
 1794SOL    HW2 5202   3.796   0.905   1.974 -1.1648  0.4013  0.0944
 1795SOL     OW 5203   2.587   0.858   2.617  0.3367  0.4417  0.4217
 1795SOL    HW1 5204   2.590   0.889   2.712  1.5354 -2.4315  1.4545
 1795SOL    HW2 5205   2.634   0.924   2.559 -0.2320  2.1681  1.8480
 1796SOL     OW 5206   2.570   0.156   0.209  0.1351  0.5763 -0.0721
 1796SOL    HW1 5207   2.473   0.179   0.204 -0.5051 -1.5774  1.1041
 1796SOL    HW2 5208   2.618   0.225   0.265 -0.6450  1.7656 -0.8233
 1797SOL     OW 5209   2.053   4.610   1.047 -0.3856  0.0454  1.0181
 1797SOL    HW1 5210   1.976   4.567   1.094 -1.3810  1.1637  0.4879
 1797SOL    HW2 5211   2.035   4.709   1.038  0.4020  0.0830 -0.4640
 1798SOL     OW 5212   3.226   0.276   1.388 -0.0337 -0.5298  0.2678
 1798SOL    HW1 5213   3.280   0.279   1.473  1.2524 -0.7354 -0.5153
 1798SOL    HW2 5214   3.235   0.363   1.340  0.2808 -0.8539 -0.2701
 1799SOL     OW 5215   1.745   0.331   1.306  0.2202  0.4011 -0.5938
 1799SOL    HW1 5216   1.683   0.374   1.241 -1.4841 -0.2233  0.5374
 1799SOL    HW2 5217   1.770   0.398   1.376 -0.9502  0.0967  0.1436
 1800SOL     OW 5218   3.941   1.532   0.571  0.1643  0.3394  0.1303
 1800SOL    HW1 5219   3.879   1.464   0.610  0.6949  0.1055  0.5735
 1800SOL    HW2 5220   3.938   1.615   0.626 -0.2091  0.5467 -0.1999
 1801SOL     OW 5221   2.139   0.221   0.863  0.1334  0.3319  0.3141
 1801SOL    HW1 5222   2.232   0.236   0.897  0.1740  1.0176 -0.0844
 1801SOL    HW2 5223   2.106   0.304   0.818 -0.3900 -0.1505 -0.2098
 1802SOL     OW 5224   3.079   2.775   0.840  0.1361  0.0264  0.5091
 1802SOL    HW1 5225   3.099   2.709   0.914 -0.9877  0.8170  1.5613
 1802SOL    HW2 5226   3.046   2.860   0.880 -1.0079  0.3025 -0.9386
 1803SOL     OW 5227   2.648   0.791   1.538  0.0810 -0.0985 -0.6168
 1803SOL    HW1 5228   2.623   0.705   1.582 -1.1040 -0.0010 -1.0580
 1803SOL    HW2 5229   2.746   0.807   1.549 -0.2220  0.2148  2.4797
 1804SOL     OW 5230   3.844   0.764   4.846 -0.4880  0.3331 -0.0345
 1804SOL    HW1 5231   3.906   0.706   4.899 -0.8683  0.4357  0.5286
 1804SOL    HW2 5232   3.894   0.806   4.770 -0.1878 -0.6730 -0.4101
 1805SOL     OW 5233   1.882   1.323   0.141  0.5586 -0.4408 -0.3841
 1805SOL    HW1 5234   1.786   1.342   0.161  0.6066 -0.1361 -0.4384
 1805SOL    HW2 5235   1.889   1.236   0.091  0.1788  0.2305 -1.6481
 1806SOL     OW 5236   3.055   1.686   0.949  0.6514 -0.2263 -0.2587
 1806SOL    HW1 5237   3.107   1.691   0.864  1.9321 -1.7957  0.3881
 1806SOL    HW2 5238   3.100   1.624   1.013 -1.7173 -1.2187  0.5742
 1807SOL     OW 5239   4.929   2.207   2.429 -0.9033  0.0366 -0.2807
 1807SOL    HW1 5240   4.997   2.261   2.479  0.1066 -0.6114 -0.9412
 1807SOL    HW2 5241   4.849   2.265   2.410 -0.6866  0.7151  0.7698
 1808SOL     OW 5242   4.021   0.396   1.391 -0.1196  0.4677 -0.1248
 1808SOL    HW1 5243   3.987   0.304   1.413  0.7246  0.5280  1.6282
 1808SOL    HW2 5244   4.034   0.404   1.293 -1.2401 -0.9185 -0.4213
 1809SOL     OW 5245   2.904   4.994   0.903  0.4218 -0.7700 -0.2362
 1809SOL    HW1 5246   2.977   5.000   0.835 -0.1011 -2.7256 -1.0342
 1809SOL    HW2 5247   2.942   4.969   0.992  1.0053  0.9798  0.0589
 1810SOL     OW 5248   2.459   0.522   0.397 -0.0293  0.0836  0.6310
 1810SOL    HW1 5249   2.445   0.424   0.408 -0.2939  0.1060  0.4966
 1810SOL    HW2 5250   2.549   0.539   0.357 -0.4599 -0.1595 -0.4789
 1811SOL     OW 5251   4.203   0.084   1.631  0.0461 -0.4556  0.2017
 1811SOL    HW1 5252   4.291   0.064   1.673  0.4004 -0.4517 -0.5250
 1811SOL    HW2 5253   4.188   0.023   1.553 -0.5963 -0.4558  0.3168
 1812SOL     OW 5254   2.896   0.704   4.559  0.0580 -0.2483  0.5166
 1812SOL    HW1 5255   2.886   0.781   4.496  0.4531 -0.0333  0.7095
 1812SOL    HW2 5256   2.907   0.738   4.652 -0.7917 -0.5723  0.7448
 1813SOL     OW 5257   3.642   0.218   1.750  0.1886 -0.2758  0.1444
 1813SOL    HW1 5258   3.586   0.147   1.792  1.4505 -1.9204 -0.8028
 1813SOL    HW2 5259   3.736   0.185   1.741  0.6750  1.2785 -0.9316
 1814SOL     OW 5260   2.930   1.895   0.167  0.1319  0.0548  0.0599
 1814SOL    HW1 5261   2.927   1.838   0.249  0.5221 -1.4116 -0.8955
 1814SOL    HW2 5262   2.844   1.884   0.116  0.9973 -1.3608 -1.1758
 1815SOL     OW 5263   3.047   0.007   1.825 -0.3731  0.0521  0.0833
 1815SOL    HW1 5264   3.102  -0.023   1.903 -0.3769 -1.6189 -0.5331
 1815SOL    HW2 5265   3.067   0.104   1.807  1.3299 -0.1342  0.7207
 1816SOL     OW 5266   1.855   0.863   2.840 -0.2409 -1.1195 -0.4357
 1816SOL    HW1 5267   1.775   0.840   2.784 -0.1129 -2.3497 -0.1517
 1816SOL    HW2 5268   1.936   0.818   2.802  0.0551 -1.0306  0.0813
 1817SOL     OW 5269   1.913   1.070   0.336  0.3101  0.3590 -0.5010
 1817SOL    HW1 5270   1.913   1.068   0.236 -0.6503  0.3946 -0.5141
 1817SOL    HW2 5271   1.972   1.144   0.368 -0.0438  0.8915 -1.0591
 1818SOL     OW 5272   3.696   0.205   0.540  0.5132 -0.2909  0.8392
 1818SOL    HW1 5273   3.645   0.136   0.489  1.4311 -1.1210  1.0113
 1818SOL    HW2 5274   3.713   0.172   0.633  1.0302  0.1307  0.9041
 1819SOL     OW 5275   2.402   4.930   4.679  0.2486  0.0572  0.4638
 1819SOL    HW1 5276   2.444   5.018   4.659  0.2577 -0.3040 -1.2895
 1819SOL    HW2 5277   2.472   4.858   4.677 -0.3420 -0.6554 -3.1972
 1820SOL     OW 5278   4.425   2.011   0.860  0.0129  0.3165 -0.2501
 1820SOL    HW1 5279   4.482   1.978   0.935  1.2763 -1.2585 -1.7991
 1820SOL    HW2 5280   4.455   2.103   0.834  0.9294  0.0725 -0.1131
 1821SOL     OW 5281   3.010   0.710   1.330 -0.0023 -0.3335 -0.3431
 1821SOL    HW1 5282   2.988   0.798   1.373  1.1290  0.0172 -0.4639
 1821SOL    HW2 5283   3.061   0.726   1.245  0.6164 -1.1164 -0.1254
 1822SOL     OW 5284   3.360   0.991   1.292  0.0411  0.2638 -0.1346
 1822SOL    HW1 5285   3.369   0.902   1.337 -0.2325 -0.8853 -2.2443
 1822SOL    HW2 5286   3.279   0.991   1.233  0.4137  1.6892 -0.6904
 1823SOL     OW 5287   3.126   1.151   4.438 -0.0374 -0.5543  0.0294
 1823SOL    HW1 5288   3.087   1.092   4.509 -1.2060 -2.0899 -1.8054
 1823SOL    HW2 5289   3.063   1.156   4.361  1.3469  0.8068 -1.0737
 1824SOL     OW 5290   2.660   1.132   0.306 -0.0465  0.0736  0.0818
 1824SOL    HW1 5291   2.654   1.174   0.397  0.2777  3.5887 -1.3504
 1824SOL    HW2 5292   2.755   1.108   0.287  0.3293  1.7334 -0.2475
 1825SOL     OW 5293   3.578   0.870   0.414  0.4030  0.1904  0.1414
 1825SOL    HW1 5294   3.568   0.967   0.393 -0.5576 -0.1170 -0.9293
 1825SOL    HW2 5295   3.644   0.829   0.350  1.1934  0.2264  0.9161
 1826SOL     OW 5296   1.813   1.244   1.108  0.9522  0.1857  0.3795
 1826SOL    HW1 5297   1.870   1.316   1.149 -0.5172  1.0391  1.0107
 1826SOL    HW2 5298   1.732   1.230   1.165  0.6858 -1.2456 -0.3097
 1827SOL     OW 5299   0.746   4.539   0.934  0.0510  0.0660 -0.2243
 1827SOL    HW1 5300   0.737   4.587   1.021  1.2719  1.2987 -0.7368
 1827SOL    HW2 5301   0.762   4.605   0.861  2.4271 -1.0983 -0.8838
 1828SOL     OW 5302   3.841   1.099   1.005  0.3654  0.0583  0.3560
 1828SOL    HW1 5303   3.794   1.109   1.093  1.5963  3.6876  0.7604
 1828SOL    HW2 5304   3.777   1.122   0.931  0.0839 -0.2828  0.4871
 1829SOL     OW 5305   3.606   1.076   1.199  0.1934 -0.1308 -0.0971
 1829SOL    HW1 5306   3.651   1.115   1.279  1.1834  0.7231 -1.0363
 1829SOL    HW2 5307   3.519   1.035   1.226  0.0195  1.0388  1.2398
 1830SOL     OW 5308   3.095   1.130   0.370 -0.0294  0.4978 -0.5410
 1830SOL    HW1 5309   3.089   1.168   0.278  1.2008  1.7383 -0.1374
 1830SOL    HW2 5310   3.157   1.051   0.370 -1.7445 -0.9310 -1.1632
 1831SOL     OW 5311   2.751   0.081   1.310 -0.0212 -0.6448  0.1648
 1831SOL    HW1 5312   2.764   0.083   1.210 -0.3087  0.1067  0.1352
 1831SOL    HW2 5313   2.837   0.104   1.355  0.0100 -0.5896  0.0792
 1832SOL     OW 5314   3.861   1.490   1.689  0.2428 -0.2216 -0.1214
 1832SOL    HW1 5315   3.827   1.569   1.638 -1.4307  0.5857  2.0684
 1832SOL    HW2 5316   3.809   1.408   1.664 -1.4405  0.4200  1.0641
 1833SOL     OW 5317   2.054   0.924   2.312 -0.2846 -0.1479  0.4139
 1833SOL    HW1 5318   2.031   0.962   2.223 -1.2803 -0.3067  0.5864
 1833SOL    HW2 5319   2.120   0.850   2.301  0.2226  0.3727 -0.1040
 1834SOL     OW 5320   3.039   5.035   1.560 -0.3167  0.3305 -0.2725
 1834SOL    HW1 5321   3.014   5.065   1.652 -2.3043 -0.6336 -0.4417
 1834SOL    HW2 5322   3.010   5.103   1.493 -0.3197  0.3038 -0.2987
 1835SOL     OW 5323   3.290   0.920   2.091  0.4413  0.1040 -0.2882
 1835SOL    HW1 5324   3.311   0.997   2.031  3.2767 -0.4001 -0.0881
 1835SOL    HW2 5325   3.313   0.945   2.186  1.6395 -1.0159 -0.2572
 1836SOL     OW 5326   2.943   0.345   0.601  0.2493 -0.0271 -0.4900
 1836SOL    HW1 5327   2.881   0.345   0.523  1.0515 -1.4212 -1.1784
 1836SOL    HW2 5328   2.919   0.420   0.663 -3.1461 -1.4170  0.1198
 1837SOL     OW 5329   4.055   0.482   0.776  0.0801  0.8502  0.6143
 1837SOL    HW1 5330   4.041   0.432   0.690  0.0542  1.5378  0.2061
 1837SOL    HW2 5331   3.982   0.458   0.841 -1.8425  2.7135 -0.7031
 1838SOL     OW 5332   2.151   0.983   4.911 -0.4601  0.1296 -0.2723
 1838SOL    HW1 5333   2.223   0.918   4.887  0.1801  0.6938  0.0858
 1838SOL    HW2 5334   2.064   0.950   4.877  0.0748 -0.2080 -1.3598
 1839SOL     OW 5335   2.189   0.710   1.230  0.0996  0.4365 -0.0006
 1839SOL    HW1 5336   2.280   0.669   1.238  0.0362  0.3643  0.3856
 1839SOL    HW2 5337   2.198   0.807   1.207  0.2568  0.2746 -0.6203
 1840SOL     OW 5338   3.842   0.198   1.446 -0.4499  0.0316 -0.0264
 1840SOL    HW1 5339   3.872   0.158   1.533 -0.5493  0.4878  0.2188
 1840SOL    HW2 5340   3.747   0.171   1.428 -0.5617  0.2692  0.2062
 1841SOL     OW 5341   3.855   0.368   0.933  0.1174 -0.1750  0.5285
 1841SOL    HW1 5342   3.801   0.293   0.895  0.6551  0.4325 -1.5338
 1841SOL    HW2 5343   3.801   0.414   1.004 -1.6012 -0.3857 -0.5739
 1842SOL     OW 5344   2.212   2.094   1.371  0.0251 -0.6146 -0.7132
 1842SOL    HW1 5345   2.168   2.080   1.460 -0.9170  1.8656 -0.7191
 1842SOL    HW2 5346   2.188   2.019   1.310 -3.0115 -0.1623 -0.2253
 1843SOL     OW 5347   4.005   0.755   0.723  0.2907  0.0391 -0.0159
 1843SOL    HW1 5348   4.041   0.663   0.740  1.8788  0.6001 -0.1001
 1843SOL    HW2 5349   4.057   0.821   0.778  0.3672  1.0612 -1.2642
 1844SOL     OW 5350   4.071   1.033   0.259 -0.2369  0.0687  0.0257
 1844SOL    HW1 5351   4.073   0.959   0.326 -0.0184  1.0738  1.1736
 1844SOL    HW2 5352   3.978   1.069   0.251 -0.2779 -0.1013 -0.2788
 1845SOL     OW 5353   2.754   0.410   1.846 -0.0254  0.0136 -0.3690
 1845SOL    HW1 5354   2.684   0.347   1.880 -0.0668  0.7973  1.0453
 1845SOL    HW2 5355   2.826   0.421   1.914 -1.8813  4.4294  1.2374
 1846SOL     OW 5356   2.276   0.800   0.735 -0.6312  0.2840  0.7243
 1846SOL    HW1 5357   2.351   0.861   0.761 -1.1473  0.2984  2.2665
 1846SOL    HW2 5358   2.217   0.846   0.669  0.0612  0.7135  0.3900
 1847SOL     OW 5359   1.401   0.053   0.199 -0.0909  0.1162  0.5010
 1847SOL    HW1 5360   1.373  -0.025   0.143 -1.0219 -0.2441  1.4455
 1847SOL    HW2 5361   1.472   0.104   0.150  0.3633 -1.1622 -0.2460
 1848SOL     OW 5362   0.529   1.303   0.108 -0.3781 -0.4684  0.0589
 1848SOL    HW1 5363   0.445   1.348   0.078  0.7566  2.0006  0.3403
 1848SOL    HW2 5364   0.519   1.274   0.203  0.0616  2.7831  1.2273
 1849SOL     OW 5365   2.795   1.613   4.388 -0.1150  0.0262 -0.4158
 1849SOL    HW1 5366   2.846   1.613   4.301 -0.9676 -0.9733 -0.9335
 1849SOL    HW2 5367   2.845   1.560   4.456 -0.2508 -0.6057 -0.8006
 1850SOL     OW 5368   3.392   4.244   4.457 -0.2260 -0.1663 -0.5892
 1850SOL    HW1 5369   3.320   4.187   4.498  0.2467  0.2299  0.8706
 1850SOL    HW2 5370   3.476   4.234   4.510  0.5140  0.1464 -1.6789
 1851SOL     OW 5371   3.515   1.908   0.981 -0.3101  0.2404  0.3716
 1851SOL    HW1 5372   3.581   1.982   0.967 -0.1378 -0.1406 -0.9051
 1851SOL    HW2 5373   3.436   1.922   0.922 -1.9073  1.2529  2.6214
 1852SOL     OW 5374   1.201   4.045   1.820  0.7580  0.0979  0.3668
 1852SOL    HW1 5375   1.151   3.994   1.890  0.2807  0.1611  0.0746
 1852SOL    HW2 5376   1.298   4.024   1.828  0.5441 -1.1140  0.0485
 1853SOL     OW 5377   3.759   1.348   0.626  0.0736 -0.1825  0.4384
 1853SOL    HW1 5378   3.686   1.381   0.686  1.3483 -0.6188  2.3230
 1853SOL    HW2 5379   3.749   1.250   0.613 -0.0668 -0.1270  0.1291
 1854SOL     OW 5380   3.166   1.739   3.259  0.2035 -0.2758 -0.4458
 1854SOL    HW1 5381   3.226   1.658   3.263  0.4931 -0.0194  1.1871
 1854SOL    HW2 5382   3.221   1.820   3.241  0.3590 -0.0520  0.9639
 1855SOL     OW 5383   1.757   1.187   0.827 -0.5683  0.0622  0.4940
 1855SOL    HW1 5384   1.669   1.233   0.813 -0.4620  0.1388  0.0436
 1855SOL    HW2 5385   1.792   1.208   0.919 -0.6706  0.6326  0.4084
 1856SOL     OW 5386   3.715   1.626   2.931 -0.4017 -0.0763  0.2785
 1856SOL    HW1 5387   3.734   1.603   2.836 -0.3032  0.7824  0.0856
 1856SOL    HW2 5388   3.617   1.634   2.945 -0.3874  0.3759  0.1134
 1857SOL     OW 5389   0.583   0.044   0.769  0.1359  0.1127  0.1210
 1857SOL    HW1 5390   0.631   0.076   0.851  1.1360 -0.0547 -0.3811
 1857SOL    HW2 5391   0.648   0.035   0.694 -0.7115 -0.0414 -0.6145
 1858SOL     OW 5392   1.711   0.243   0.948 -0.3506  0.3780 -0.0264
 1858SOL    HW1 5393   1.624   0.214   0.909 -0.4959  0.6885  0.0738
 1858SOL    HW2 5394   1.736   0.181   1.023 -1.0507  0.9686  0.7159
 1859SOL     OW 5395   2.690   1.456   0.183  0.6290  0.0590 -0.7019
 1859SOL    HW1 5396   2.645   1.515   0.115 -1.4443  0.3992  0.8766
 1859SOL    HW2 5397   2.651   1.474   0.273 -1.0896 -4.5455 -0.2500
 1860SOL     OW 5398   2.949   0.302   1.122 -0.0522  0.0888 -0.2238
 1860SOL    HW1 5399   2.886   0.228   1.101 -1.7631  1.7918 -1.4870
 1860SOL    HW2 5400   2.907   0.365   1.187  0.2499  1.3164 -1.1772
 1861SOL     OW 5401   3.515   1.111   1.628 -0.3326  0.5814  0.5828
 1861SOL    HW1 5402   3.448   1.167   1.580  0.4711  1.1033  0.0564
 1861SOL    HW2 5403   3.473   1.023   1.653 -1.0845  0.7340 -0.1080
 1862SOL     OW 5404   3.847   1.962   1.105 -0.1062 -0.4907 -0.4560
 1862SOL    HW1 5405   3.784   2.007   1.041  1.1038  1.5765 -0.2879
 1862SOL    HW2 5406   3.933   1.944   1.059  1.0883  1.8030  0.6931
 1863SOL     OW 5407   0.812   1.659   1.234  0.0132 -0.5119 -0.1035
 1863SOL    HW1 5408   0.810   1.559   1.228  0.2640 -0.4842 -0.7654
 1863SOL    HW2 5409   0.888   1.694   1.179  0.2737  0.0161  0.5712
 1864SOL     OW 5410   2.302   1.794   1.834  0.0792 -0.2144  0.0190
 1864SOL    HW1 5411   2.345   1.740   1.907  0.6026  2.0199  1.4717
 1864SOL    HW2 5412   2.372   1.848   1.787 -0.5539  0.0374 -0.6563
 1865SOL     OW 5413   2.997   0.793   0.740  0.3538  0.2198 -0.0854
 1865SOL    HW1 5414   3.055   0.797   0.822  1.1013  0.1526 -0.5993
 1865SOL    HW2 5415   3.054   0.777   0.660 -0.4323 -0.2528 -0.5600
 1866SOL     OW 5416   2.465   0.057   0.954 -0.9527  0.1304 -0.3805
 1866SOL    HW1 5417   2.441   0.149   0.922 -1.2037  0.5157  0.8810
 1866SOL    HW2 5418   2.445   0.049   1.051  0.4830 -0.7858 -0.1326
 1867SOL     OW 5419   2.392   0.494   1.491  0.5749  0.1672  0.8243
 1867SOL    HW1 5420   2.388   0.511   1.392  0.0772  1.5952  1.0802
 1867SOL    HW2 5421   2.313   0.535   1.535 -0.4740 -2.4590  1.5706
 1868SOL     OW 5422   3.272   4.112   0.992  0.3432  0.0253  0.0448
 1868SOL    HW1 5423   3.247   4.041   0.926 -0.0985 -1.8475  2.0904
 1868SOL    HW2 5424   3.237   4.200   0.962  0.8004 -0.6013 -2.5494
 1869SOL     OW 5425   3.523   1.613   3.960 -0.2964  0.0331 -0.2057
 1869SOL    HW1 5426   3.607   1.600   3.907 -0.2079 -1.4540  0.2529
 1869SOL    HW2 5427   3.512   1.537   4.024 -3.3000 -1.2324 -1.9773
 1870SOL     OW 5428   2.295   0.887   1.884 -0.4325 -0.3303 -0.4169
 1870SOL    HW1 5429   2.347   0.950   1.942  1.6655 -1.6552 -0.7661
 1870SOL    HW2 5430   2.296   0.920   1.790 -1.4538  0.3624 -0.2008
 1871SOL     OW 5431   4.146   0.359   0.342  0.0727 -0.1255 -0.2546
 1871SOL    HW1 5432   4.163   0.264   0.315 -0.4767 -0.3897  0.2907
 1871SOL    HW2 5433   4.229   0.413   0.330 -0.2382 -0.1162 -2.8471
 1872SOL     OW 5434   3.355   0.313   0.214 -0.3325  0.1625 -0.0254
 1872SOL    HW1 5435   3.257   0.307   0.195 -0.5087  0.8407  0.6075
 1872SOL    HW2 5436   3.395   0.222   0.211 -1.2257 -0.2905  0.8860
 1873SOL     OW 5437   1.407   4.381   5.016  0.2062 -0.1242 -0.1487
 1873SOL    HW1 5438   1.373   4.434   4.938 -0.7798 -0.0344  0.3369
 1873SOL    HW2 5439   1.403   4.283   4.993 -2.2812 -0.2668  0.5801
 1874SOL     OW 5440   2.866   2.184   1.402 -0.1002  0.1509  0.3282
 1874SOL    HW1 5441   2.821   2.095   1.409  0.1660  0.1448  2.9407
 1874SOL    HW2 5442   2.803   2.255   1.435  0.5050  0.6238  0.4677
 1875SOL     OW 5443   2.025   0.816   0.848  0.0148 -0.6420 -0.0508
 1875SOL    HW1 5444   2.115   0.831   0.807 -0.8931  0.5103 -1.6936
 1875SOL    HW2 5445   2.008   0.886   0.918  0.0935 -0.4047 -0.2690
 1876SOL     OW 5446   2.725   1.468   1.141  0.1221  0.6084  0.4713
 1876SOL    HW1 5447   2.798   1.463   1.209  0.1664  2.7336  0.6670
 1876SOL    HW2 5448   2.735   1.393   1.075  1.7233  0.1240  1.2094
 1877SOL     OW 5449   4.174   0.577   1.790  0.7376 -0.0656  0.3783
 1877SOL    HW1 5450   4.218   0.635   1.859  0.6175 -0.0207  0.4162
 1877SOL    HW2 5451   4.214   0.485   1.794  0.8476 -0.0176  0.3944
 1878SOL     OW 5452   4.464   1.384   0.969 -0.5496 -0.3039  0.2885
 1878SOL    HW1 5453   4.517   1.340   0.896 -0.5339  0.4455 -0.1653
 1878SOL    HW2 5454   4.526   1.436   1.028 -0.7208  0.2244  0.0089
 1879SOL     OW 5455   2.272   2.289   2.053  0.0245 -0.4100 -0.3141
 1879SOL    HW1 5456   2.317   2.241   1.978  0.8206  0.3985 -0.3664
 1879SOL    HW2 5457   2.326   2.280   2.136  1.5860  2.4705 -0.8859
 1880SOL     OW 5458   4.494   0.381   0.036 -0.4405 -0.3183  0.0549
 1880SOL    HW1 5459   4.586   0.354   0.066 -0.3439 -2.0057 -1.5820
 1880SOL    HW2 5460   4.488   0.481   0.035  0.9023 -0.1827  1.5139
 1881SOL     OW 5461   2.650   4.965   0.837  0.1504 -0.8286 -0.2645
 1881SOL    HW1 5462   2.746   4.981   0.860 -0.3057  1.4539  0.3035
 1881SOL    HW2 5463   2.595   5.041   0.871 -1.5016 -0.7092 -2.9352
 1882SOL     OW 5464   1.694   0.687   1.302  0.2895  0.5382  0.5521
 1882SOL    HW1 5465   1.667   0.637   1.385  1.5848 -1.3700 -0.1137
 1882SOL    HW2 5466   1.791   0.708   1.307  0.3393  0.5543 -0.4200
 1883SOL     OW 5467   3.974   4.728   0.952  0.0257  0.3501  0.1892
 1883SOL    HW1 5468   3.947   4.750   1.045 -0.7554 -2.2143  0.6505
 1883SOL    HW2 5469   3.899   4.750   0.889  0.0024  0.7500  0.3561
 1884SOL     OW 5470   4.854   0.932   2.049  0.7410  0.1625 -0.5880
 1884SOL    HW1 5471   4.812   0.985   1.975  0.2921  0.3451 -0.2108
 1884SOL    HW2 5472   4.804   0.950   2.134 -0.0203 -1.5892 -0.6286
 1885SOL     OW 5473   3.461   1.363   0.997  0.4112 -0.0638 -0.3996
 1885SOL    HW1 5474   3.465   1.265   1.017 -0.5412  0.2740  1.6395
 1885SOL    HW2 5475   3.534   1.411   1.046  0.6106  0.3276 -1.0537
 1886SOL     OW 5476   2.881   0.945   1.699  0.1411  0.2091 -0.0073
 1886SOL    HW1 5477   2.929   1.022   1.657 -0.5053 -0.9478 -3.1477
 1886SOL    HW2 5478   2.796   0.978   1.741  0.4339  1.3710 -0.2924
 1887SOL     OW 5479   3.897   1.458   1.196  0.0667 -0.2548 -0.4396
 1887SOL    HW1 5480   3.946   1.383   1.152 -0.4943 -0.4400 -0.7441
 1887SOL    HW2 5481   3.944   1.483   1.281  2.2882  1.3474 -2.0024
 1888SOL     OW 5482   3.103   2.449   0.732 -0.3716  0.2409 -0.1186
 1888SOL    HW1 5483   3.050   2.528   0.702 -1.3571  0.6438  2.3593
 1888SOL    HW2 5484   3.060   2.411   0.814  2.5645 -0.0942  1.3873
 1889SOL     OW 5485   4.450   1.884   1.576 -0.5741 -0.1296 -0.0248
 1889SOL    HW1 5486   4.504   1.862   1.657  0.6380 -0.0028 -0.7755
 1889SOL    HW2 5487   4.394   1.806   1.550  0.9904 -1.1280 -0.5667
 1890SOL     OW 5488   2.579   1.037   1.034 -0.4479 -0.1482 -0.0522
 1890SOL    HW1 5489   2.506   1.094   1.069 -1.1939 -1.2828  0.3113
 1890SOL    HW2 5490   2.608   0.973   1.105  0.8555  0.2336 -0.2158
 1891SOL     OW 5491   2.202   0.493   0.171  0.0388  0.3180  0.1882
 1891SOL    HW1 5492   2.144   0.541   0.237 -0.8559  1.8237 -1.5818
 1891SOL    HW2 5493   2.283   0.549   0.152  0.5172 -0.3195  0.3458
 1892SOL     OW 5494   3.494   0.733   2.015 -0.2942  0.4238  0.1230
 1892SOL    HW1 5495   3.503   0.694   2.106  0.2365  3.1059  1.3165
 1892SOL    HW2 5496   3.429   0.809   2.017  1.6400  2.2583 -1.0223
 1893SOL     OW 5497   3.169   0.390   0.983 -0.4342  0.1639  0.6380
 1893SOL    HW1 5498   3.175   0.377   0.884 -1.1267  2.1836  0.2858
 1893SOL    HW2 5499   3.083   0.351   1.017 -0.6360  0.3065  0.2944
 1894SOL     OW 5500   2.849   4.218   0.726 -0.0528 -0.4730  0.0525
 1894SOL    HW1 5501   2.835   4.237   0.823 -1.9145  0.2954 -0.3110
 1894SOL    HW2 5502   2.921   4.150   0.715  0.3443 -0.4103  1.9518
 1895SOL     OW 5503   3.889   4.910   1.733  0.0791 -0.1849  0.3017
 1895SOL    HW1 5504   3.917   4.814   1.734 -1.4665 -0.6983 -1.1283
 1895SOL    HW2 5505   3.793   4.916   1.703  0.2634  1.8280  0.0104
 1896SOL     OW 5506   1.926   1.279   0.625 -0.7345 -0.1484 -0.5804
 1896SOL    HW1 5507   1.887   1.205   0.680 -0.5249  0.4458  0.4010
 1896SOL    HW2 5508   1.853   1.338   0.592 -0.8343 -0.3082 -0.6469
 1897SOL     OW 5509   4.961   1.578   1.068  0.1398  0.0386  0.2429
 1897SOL    HW1 5510   5.045   1.573   1.013 -0.1040 -1.1082 -0.0606
 1897SOL    HW2 5511   4.962   1.662   1.122  1.6879 -0.1521  0.5801
 1898SOL     OW 5512   4.202   4.794   1.242  0.1187 -0.5436 -0.0027
 1898SOL    HW1 5513   4.103   4.792   1.234 -0.1496 -0.9074  2.5880
 1898SOL    HW2 5514   4.240   4.856   1.173 -2.0400  1.0820  0.1596
 1899SOL     OW 5515   2.269   1.265   0.222 -0.0087  0.0083 -0.1493
 1899SOL    HW1 5516   2.198   1.203   0.257 -1.0629  1.2766  0.0271
 1899SOL    HW2 5517   2.226   1.341   0.174  1.1902  1.3129  0.7735
 1900SOL     OW 5518   2.850   1.584   0.822 -0.1120  0.2030 -0.2205
 1900SOL    HW1 5519   2.933   1.619   0.865 -1.3488  1.2386  1.4438
 1900SOL    HW2 5520   2.777   1.652   0.829 -0.9703 -0.4327 -2.1918
 1901SOL     OW 5521   2.000   1.081   1.006  0.7324 -0.3074  0.7226
 1901SOL    HW1 5522   1.925   1.131   1.049 -0.4226 -2.0483  0.8328
 1901SOL    HW2 5523   2.036   1.134   0.930 -1.6977 -0.0912 -0.3662
 1902SOL     OW 5524   3.707   0.742   0.749  0.4897  0.5267  0.0937
 1902SOL    HW1 5525   3.692   0.655   0.702 -1.9463  0.0209  1.6677
 1902SOL    HW2 5526   3.803   0.768   0.739  1.7259 -3.1529  0.9090
 1903SOL     OW 5527   4.321   0.470   0.901  0.1888  0.4565 -0.4670
 1903SOL    HW1 5528   4.396   0.520   0.857 -0.2961  1.7884  0.1926
 1903SOL    HW2 5529   4.238   0.482   0.848  0.1793 -0.0849 -0.5797
 1904SOL     OW 5530   3.465   4.510   0.820  0.4790 -0.1144  0.3875
 1904SOL    HW1 5531   3.393   4.523   0.751 -0.6987  0.8133  1.7421
 1904SOL    HW2 5532   3.514   4.597   0.833  0.1046 -0.0489  1.3613
 1905SOL     OW 5533   1.971   5.079   0.359  0.1281  0.0822  0.0355
 1905SOL    HW1 5534   1.927   5.119   0.279 -0.0406 -0.6219 -0.2329
 1905SOL    HW2 5535   1.902   5.041   0.420  0.2630  0.5239  0.4692
 1906SOL     OW 5536   2.425   1.181   1.699 -0.3911 -0.7665 -0.0674
 1906SOL    HW1 5537   2.441   1.114   1.627  0.7453 -1.6039  0.9204
 1906SOL    HW2 5538   2.327   1.188   1.717 -0.5018 -2.8623  0.4179
 1907SOL     OW 5539   2.575   0.576   1.686 -0.0547  0.9655 -0.8479
 1907SOL    HW1 5540   2.621   0.510   1.746 -1.1112  0.5496 -0.4786
 1907SOL    HW2 5541   2.509   0.529   1.629 -0.9127  1.7119 -0.4905
 1908SOL     OW 5542   1.743   4.942   1.331  0.1318 -0.0610  0.7020
 1908SOL    HW1 5543   1.805   4.947   1.409 -0.5849 -0.4470  1.3148
 1908SOL    HW2 5544   1.653   4.910   1.362 -0.7958  1.8381  0.0894
 1909SOL     OW 5545   2.407   0.978   2.305 -0.7863  0.0036 -0.7438
 1909SOL    HW1 5546   2.350   0.898   2.291  0.6215 -1.0569 -0.6625
 1909SOL    HW2 5547   2.406   1.036   2.223 -1.6445 -0.1847 -0.8760
 1910SOL     OW 5548   2.568   1.157   2.443  0.1904  0.3970 -0.4886
 1910SOL    HW1 5549   2.512   1.080   2.413 -1.0936  0.6912  0.9810
 1910SOL    HW2 5550   2.630   1.127   2.515 -3.6223  1.4011  3.7153
 1911SOL     OW 5551   3.222   1.110   1.878  0.4202  0.1718  0.1112
 1911SOL    HW1 5552   3.320   1.126   1.893  0.0617  4.2675 -0.7602
 1911SOL    HW2 5553   3.205   1.104   1.779 -0.0417 -3.3406  0.2511
 1912SOL     OW 5554   3.037   0.842   2.154  0.1670  0.3892  0.5889
 1912SOL    HW1 5555   2.978   0.824   2.075  3.4450 -1.9075 -1.5970
 1912SOL    HW2 5556   3.121   0.886   2.124  1.4762 -0.4327  2.7876
 1913SOL     OW 5557   4.437   0.037   1.797  0.1309 -0.1247 -0.1089
 1913SOL    HW1 5558   4.518  -0.017   1.773 -0.2969 -0.2645 -1.2595
 1913SOL    HW2 5559   4.464   0.133   1.808  0.2841  0.0399 -1.6460
 1914SOL     OW 5560   0.979   1.310   3.385 -0.2345 -0.7511  0.0765
 1914SOL    HW1 5561   0.968   1.235   3.450 -0.1652 -0.1266  0.8259
 1914SOL    HW2 5562   0.890   1.339   3.351 -0.1712 -2.2802 -1.5369
 1915SOL     OW 5563   2.827   0.372   3.895 -0.1593  0.2631 -0.1263
 1915SOL    HW1 5564   2.877   0.448   3.854 -0.6736  0.5547 -0.2274
 1915SOL    HW2 5565   2.816   0.299   3.827  2.9486 -1.2390  0.8059
 1916SOL     OW 5566   1.455   0.765   2.087  0.4733  0.4121  0.1632
 1916SOL    HW1 5567   1.395   0.813   2.151  0.8216  0.5686  0.3788
 1916SOL    HW2 5568   1.421   0.777   1.994  0.4409  0.9185  0.2347
 1917SOL     OW 5569   3.609   2.166   3.574 -0.4352  0.6916  0.3724
 1917SOL    HW1 5570   3.658   2.232   3.631 -2.6698  1.4743  1.5346
 1917SOL    HW2 5571   3.657   2.079   3.575  1.2959  1.5940  0.8175
 1918SOL     OW 5572   1.204   1.806   1.984 -0.4051  0.2690  0.0240
 1918SOL    HW1 5573   1.282   1.823   1.924 -1.0232  1.9913 -0.3585
 1918SOL    HW2 5574   1.193   1.883   2.047 -1.2763 -0.3456  0.6399
 1919SOL     OW 5575   3.449   1.002   3.189  0.9737  0.8289 -1.4310
 1919SOL    HW1 5576   3.454   0.986   3.287 -0.0445  1.6248 -1.2345
 1919SOL    HW2 5577   3.518   1.069   3.162  1.8555 -0.0535 -1.4256
 1920SOL     OW 5578   1.991   4.193   3.477 -0.4246 -0.3360  0.0145
 1920SOL    HW1 5579   1.930   4.153   3.546 -1.5441 -1.4629 -1.5603
 1920SOL    HW2 5580   1.942   4.263   3.425  0.3811  0.4373  0.2645
 1921SOL     OW 5581   4.101   1.023   2.042 -0.0566 -0.1046 -0.2108
 1921SOL    HW1 5582   4.057   1.112   2.056 -1.3926 -0.7891  0.1632
 1921SOL    HW2 5583   4.084   0.991   1.949 -0.1162 -0.2515 -0.1497
 1922SOL     OW 5584   1.407   1.889   2.280 -0.2388  0.3314  0.3062
 1922SOL    HW1 5585   1.435   1.865   2.373 -0.8395  1.7805  0.8800
 1922SOL    HW2 5586   1.461   1.836   2.214  0.7207 -0.1540  1.4556
 1923SOL     OW 5587   2.813   4.845   3.711 -0.6311 -0.1240  0.2571
 1923SOL    HW1 5588   2.840   4.752   3.737 -1.4675 -0.3218  0.4596
 1923SOL    HW2 5589   2.824   4.857   3.612  1.0316  0.1066  0.4441
 1924SOL     OW 5590   1.991   1.768   1.997 -0.3968 -0.2388  0.5717
 1924SOL    HW1 5591   1.909   1.721   2.030 -1.7695  1.0320 -0.8144
 1924SOL    HW2 5592   2.017   1.840   2.062 -0.7572 -0.2500  0.7308
 1925SOL     OW 5593   2.007   0.605   3.102 -0.2719 -0.4530  0.1185
 1925SOL    HW1 5594   1.999   0.527   3.164 -0.0741 -0.2512  0.4058
 1925SOL    HW2 5595   2.018   0.573   3.008  0.4246 -0.7800  0.3063
 1926SOL     OW 5596   3.128   2.500   2.653  0.4041 -0.6820 -0.0774
 1926SOL    HW1 5597   3.177   2.463   2.574  2.5486  0.0018  0.8881
 1926SOL    HW2 5598   3.029   2.494   2.636  0.7013  1.7712 -3.9597
 1927SOL     OW 5599   2.472   1.016   1.476 -0.3099 -0.0113  0.1312
 1927SOL    HW1 5600   2.492   1.052   1.385 -1.5765 -0.1835 -0.2319
 1927SOL    HW2 5601   2.534   0.940   1.496 -0.8253 -0.7983 -1.1233
 1928SOL     OW 5602   3.845   4.850   4.135 -0.3622  0.3689 -0.2935
 1928SOL    HW1 5603   3.903   4.770   4.146 -0.9092 -0.0461 -0.4054
 1928SOL    HW2 5604   3.769   4.847   4.200 -1.2704 -0.0105 -1.3438
 1929SOL     OW 5605   2.307   0.212   2.127 -0.1860 -0.4249 -0.1758
 1929SOL    HW1 5606   2.228   0.210   2.067 -0.5348  0.3338  0.2488
 1929SOL    HW2 5607   2.380   0.156   2.088 -0.8446 -0.9373 -0.6848
 1930SOL     OW 5608   4.293   2.285   2.423  0.3788  0.3553 -0.6521
 1930SOL    HW1 5609   4.270   2.211   2.486  1.8527  0.1601 -0.2998
 1930SOL    HW2 5610   4.374   2.258   2.369  1.7663  2.1889  0.3992
 1931SOL     OW 5611   1.930   1.085   2.474 -0.1872 -0.3981  0.2937
 1931SOL    HW1 5612   1.977   1.019   2.417  0.3657 -0.3129  0.6405
 1931SOL    HW2 5613   1.857   1.040   2.526 -1.2895 -0.3094 -1.1280
 1932SOL     OW 5614   3.763   2.475   1.867 -0.1489 -0.2399  0.2114
 1932SOL    HW1 5615   3.792   2.391   1.913 -0.2683 -0.2673  0.2376
 1932SOL    HW2 5616   3.759   2.459   1.768  3.4013  0.7537 -0.2167
 1933SOL     OW 5617   3.703   0.052   1.041  0.2850 -0.0915  0.2921
 1933SOL    HW1 5618   3.647   0.026   1.120 -0.9387 -0.1609 -0.5519
 1933SOL    HW2 5619   3.799   0.040   1.062  0.0009  0.1280  1.8509
 1934SOL     OW 5620   2.541   0.056   3.817 -0.8712 -0.4695  0.1813
 1934SOL    HW1 5621   2.509   0.126   3.881 -0.5630 -1.8418  1.9278
 1934SOL    HW2 5622   2.632   0.025   3.845 -0.4684 -0.6874 -1.3092
 1935SOL     OW 5623   2.110   1.011   2.847  0.4464  0.0017  0.0846
 1935SOL    HW1 5624   2.170   0.970   2.777  0.1248  1.9103 -1.3791
 1935SOL    HW2 5625   2.020   0.969   2.841  1.1260 -1.7496  1.2261
 1936SOL     OW 5626   2.249   1.031   3.556  0.0588 -0.0509 -0.2706
 1936SOL    HW1 5627   2.235   1.075   3.468 -0.6156 -0.9314 -0.6187
 1936SOL    HW2 5628   2.341   0.993   3.560 -0.3294 -1.1317 -1.1216
 1937SOL     OW 5629   3.944   0.197   2.291  0.8202 -0.8130 -0.8327
 1937SOL    HW1 5630   3.878   0.183   2.364  2.4937  0.8094  1.1186
 1937SOL    HW2 5631   3.901   0.247   2.216 -0.7845 -2.0365 -0.7890
 1938SOL     OW 5632   2.687   0.404   3.561  0.4105 -0.1987  0.3489
 1938SOL    HW1 5633   2.637   0.487   3.586  1.0322  0.1179  0.5810
 1938SOL    HW2 5634   2.633   0.324   3.585 -1.5795  0.0890 -2.6403
 1939SOL     OW 5635   4.994   1.243   1.506  0.3588 -0.3693 -0.2029
 1939SOL    HW1 5636   4.978   1.223   1.602 -1.2082 -0.4942 -0.4691
 1939SOL    HW2 5637   4.983   1.159   1.452  3.3067 -0.8082 -0.3322
 1940SOL     OW 5638   2.830   1.765   3.600  0.0679  0.3455  0.0228
 1940SOL    HW1 5639   2.818   1.682   3.656 -1.0466  0.0824 -0.5721
 1940SOL    HW2 5640   2.927   1.783   3.588  0.3594 -1.3797 -0.5565
 1941SOL     OW 5641   1.126   4.427   1.337 -0.1649 -0.2728 -0.1827
 1941SOL    HW1 5642   1.206   4.469   1.380 -0.2020  0.2176 -0.5877
 1941SOL    HW2 5643   1.157   4.355   1.274  0.0227  0.5825 -1.0868
 1942SOL     OW 5644   4.364   0.997   2.116 -0.2034  0.2329  0.3059
 1942SOL    HW1 5645   4.379   0.916   2.172  1.5411  0.4046  0.1341
 1942SOL    HW2 5646   4.268   1.000   2.087 -0.8134 -0.5811  2.1090
 1943SOL     OW 5647   3.161   2.669   1.505  0.4498  0.1840  0.7270
 1943SOL    HW1 5648   3.103   2.594   1.537 -1.1224  0.2184 -1.7680
 1943SOL    HW2 5649   3.123   2.756   1.535  0.5648  0.1195  1.0672
 1944SOL     OW 5650   2.745   0.214   2.472 -0.6701 -0.0974 -0.6246
 1944SOL    HW1 5651   2.843   0.227   2.485 -0.6041  0.0942 -1.2858
 1944SOL    HW2 5652   2.699   0.214   2.561 -0.0252 -0.5917 -0.2843
 1945SOL     OW 5653   4.041   5.077   2.861 -0.4698  0.0908  0.0075
 1945SOL    HW1 5654   4.072   5.081   2.766  0.3898  0.5514  0.2932
 1945SOL    HW2 5655   3.995   4.990   2.878 -1.2574  0.2967 -1.0144
 1946SOL     OW 5656   3.373   2.209   2.641 -0.0818  0.5965 -0.2855
 1946SOL    HW1 5657   3.365   2.280   2.572  1.3424  0.8573 -0.2089
 1946SOL    HW2 5658   3.446   2.232   2.705  0.0452 -0.6706  0.0533
 1947SOL     OW 5659   2.324   0.056   3.632 -0.0733 -0.5136 -0.3526
 1947SOL    HW1 5660   2.237   0.045   3.680 -0.2220  1.6277 -0.0125
 1947SOL    HW2 5661   2.400   0.052   3.698 -0.1638  0.7866 -0.1454
 1948SOL     OW 5662   3.971   0.783   2.856 -0.4673  0.1879 -0.7810
 1948SOL    HW1 5663   3.915   0.750   2.779 -1.0725 -0.5738 -0.0339
 1948SOL    HW2 5664   4.039   0.847   2.822 -1.3728  0.6422 -1.8154
 1949SOL     OW 5665   2.231   0.631   3.360 -0.7698  0.1846  0.2405
 1949SOL    HW1 5666   2.167   0.700   3.395 -1.4591  0.5815 -1.7173
 1949SOL    HW2 5667   2.224   0.548   3.417 -2.9171  0.2785  0.1816
 1950SOL     OW 5668   3.437   0.235   4.696  0.3236 -0.2372  0.5326
 1950SOL    HW1 5669   3.506   0.297   4.731  0.2122  0.8499 -1.0638
 1950SOL    HW2 5670   3.479   0.169   4.634  0.6026 -2.4587  2.8949
 1951SOL     OW 5671   3.277   3.483   2.932  0.2864 -0.3447  0.9506
 1951SOL    HW1 5672   3.259   3.390   2.965  0.3392 -0.5509  0.4054
 1951SOL    HW2 5673   3.274   3.484   2.832 -2.2886  0.7260  0.9511
 1952SOL     OW 5674   1.751   2.057   2.229 -0.3170 -0.2928 -0.2645
 1952SOL    HW1 5675   1.676   2.023   2.174 -1.1844 -0.2894  0.8741
 1952SOL    HW2 5676   1.722   2.138   2.280  0.3561 -0.4491  0.3986
 1953SOL     OW 5677   1.694   1.073   3.853 -0.1542 -0.1429  0.5052
 1953SOL    HW1 5678   1.743   1.133   3.916  0.0603 -0.2189  0.4115
 1953SOL    HW2 5679   1.751   1.054   3.773 -1.4057  2.1722 -1.0682
 1954SOL     OW 5680   3.070   1.118   1.583 -0.1093  0.4860 -0.3250
 1954SOL    HW1 5681   3.161   1.130   1.546 -0.4031  2.0990 -0.5764
 1954SOL    HW2 5682   3.005   1.174   1.532 -0.7413  1.7610  1.7264
 1955SOL     OW 5683   3.364   0.647   3.795 -0.2945  0.1355  0.0095
 1955SOL    HW1 5684   3.362   0.689   3.885  1.0478  0.8726 -0.2676
 1955SOL    HW2 5685   3.303   0.568   3.793 -0.1047 -0.0841  1.6531
 1956SOL     OW 5686   4.254   0.902   1.569  0.2168 -0.0668  0.5365
 1956SOL    HW1 5687   4.182   0.914   1.637 -0.4751 -2.0672  0.2202
 1956SOL    HW2 5688   4.244   0.813   1.524  2.2578  0.0509 -0.2891
 1957SOL     OW 5689   4.181   3.937   2.988  0.4245 -0.3652 -0.0652
 1957SOL    HW1 5690   4.096   3.890   3.007  0.4468 -0.3458  0.0816
 1957SOL    HW2 5691   4.161   4.030   2.957  0.4373  0.2402  1.6544
 1958SOL     OW 5692   3.494   0.617   2.245 -0.0449 -0.8401 -0.0229
 1958SOL    HW1 5693   3.497   0.522   2.275 -0.2409 -0.7047  0.4426
 1958SOL    HW2 5694   3.471   0.675   2.323 -0.0618 -0.4255 -0.3354
 1959SOL     OW 5695   1.931   2.012   2.587  0.0320  0.1441 -0.3755
 1959SOL    HW1 5696   1.977   2.066   2.517  0.7632  1.3449  0.9794
 1959SOL    HW2 5697   1.934   2.060   2.675  0.5666 -2.0044  0.8758
 1960SOL     OW 5698   3.676   1.641   2.280  0.1784 -0.2838  0.3572
 1960SOL    HW1 5699   3.623   1.563   2.247 -1.7469  1.2418 -0.3931
 1960SOL    HW2 5700   3.756   1.609   2.331 -0.3233 -2.7030 -0.2667
 1961SOL     OW 5701   2.291   4.193   4.300  0.0985  0.0997  0.1475
 1961SOL    HW1 5702   2.308   4.239   4.386  0.1632  0.5696 -0.1149
 1961SOL    HW2 5703   2.221   4.123   4.313  0.0374  0.2355  0.5564
 1962SOL     OW 5704   2.300   4.332   1.698 -0.2467  0.8673  0.4126
 1962SOL    HW1 5705   2.370   4.304   1.763  0.3633 -0.0611 -0.6210
 1962SOL    HW2 5706   2.342   4.352   1.610 -1.3044  0.0493 -0.3025
 1963SOL     OW 5707   3.170   2.245   3.236  0.4682  0.2156 -0.0239
 1963SOL    HW1 5708   3.229   2.245   3.155  1.4507  0.8717  0.6613
 1963SOL    HW2 5709   3.101   2.316   3.227  1.8169  1.6628  0.5409
 1964SOL     OW 5710   1.607   1.837   4.419 -0.2432  0.5916  0.2314
 1964SOL    HW1 5711   1.676   1.771   4.387 -0.7842 -1.6658  3.2925
 1964SOL    HW2 5712   1.559   1.875   4.340  0.3076 -2.4824 -1.7914
 1965SOL     OW 5713   2.513   1.910   1.710 -0.0989  0.0719 -0.2861
 1965SOL    HW1 5714   2.560   1.992   1.743 -0.5240  0.5132 -0.7660
 1965SOL    HW2 5715   2.575   1.831   1.718  0.7507  0.6500 -0.9789
 1966SOL     OW 5716   2.991   4.336   2.753  0.0378  0.1770  0.0695
 1966SOL    HW1 5717   2.956   4.415   2.702  1.7325  0.8426 -0.1286
 1966SOL    HW2 5718   3.052   4.368   2.826  0.3820 -0.9260  0.2864
 1967SOL     OW 5719   5.045   1.825   0.736 -0.2494  0.2383  0.1213
 1967SOL    HW1 5720   5.053   1.726   0.728  0.2404  0.3093 -0.2852
 1967SOL    HW2 5721   4.949   1.850   0.743 -0.4555 -0.1724 -1.0515
 1968SOL     OW 5722   3.379   1.425   2.973 -0.1135 -0.2473  0.7505
 1968SOL    HW1 5723   3.398   1.349   2.912 -1.1298  0.2248 -0.1770
 1968SOL    HW2 5724   3.281   1.426   2.996 -0.3503  1.4289 -0.1848
 1969SOL     OW 5725   3.988   0.066   1.263 -0.2395 -0.3789 -1.0084
 1969SOL    HW1 5726   4.059   0.030   1.323  0.1808 -0.4238 -1.5273
 1969SOL    HW2 5727   3.916   0.108   1.318  0.3742  0.0086 -0.4874
 1970SOL     OW 5728   3.319   1.942   3.187 -0.5900 -0.1461  0.0205
 1970SOL    HW1 5729   3.404   1.921   3.137 -1.6053 -0.2657 -1.7360
 1970SOL    HW2 5730   3.342   1.992   3.271  1.1600  0.8791 -0.9915
 1971SOL     OW 5731   1.237   2.551   3.261 -0.1459  0.2935  0.1381
 1971SOL    HW1 5732   1.222   2.489   3.338  1.4477  2.7614  2.6223
 1971SOL    HW2 5733   1.333   2.577   3.256 -0.3756  0.9589 -2.1340
 1972SOL     OW 5734   2.936   5.075   2.313  0.5743 -0.2818 -0.6154
 1972SOL    HW1 5735   2.860   5.116   2.363  0.1345 -1.8215  0.0281
 1972SOL    HW2 5736   2.904   4.995   2.261  1.7336 -0.9540 -0.3434
 1973SOL     OW 5737   2.795   0.444   4.830 -0.4691 -0.7853  0.7801
 1973SOL    HW1 5738   2.857   0.372   4.802  1.5488  1.2893 -0.3639
 1973SOL    HW2 5739   2.789   0.514   4.759  1.3633  2.4878  3.5285
 1974SOL     OW 5740   3.213   1.292   2.104  0.1683  0.1612  0.1104
 1974SOL    HW1 5741   3.173   1.248   2.185 -1.7927  1.0957 -0.2883
 1974SOL    HW2 5742   3.214   1.226   2.029 -2.2751  0.5460 -0.3396
 1975SOL     OW 5743   2.412   4.465   3.617  0.4909 -0.5892 -0.2262
 1975SOL    HW1 5744   2.398   4.563   3.622 -0.4560 -0.6973 -0.5941
 1975SOL    HW2 5745   2.324   4.419   3.608  0.9267 -1.4693 -0.1207
 1976SOL     OW 5746   3.516   1.851   3.832 -0.0681  0.1109  0.4163
 1976SOL    HW1 5747   3.502   1.782   3.903 -0.1220 -0.0234  0.2755
 1976SOL    HW2 5748   3.614   1.855   3.810  0.3769  2.1051  2.4650
 1977SOL     OW 5749   2.666   4.445   3.869  0.6109 -0.5092 -0.0601
 1977SOL    HW1 5750   2.659   4.357   3.916 -0.4093  0.3051  1.4060
 1977SOL    HW2 5751   2.625   4.437   3.778  0.1149 -1.4343  0.2273
 1978SOL     OW 5752   2.845   1.265   3.658  0.3881 -0.4337 -0.3432
 1978SOL    HW1 5753   2.920   1.200   3.657  0.2691 -0.5929  0.2992
 1978SOL    HW2 5754   2.846   1.320   3.575  1.6266  0.0279 -0.0440
 1979SOL     OW 5755   2.849   4.935   3.447  0.1033  0.5558  0.3772
 1979SOL    HW1 5756   2.821   4.917   3.352  0.7112 -0.3883  0.3599
 1979SOL    HW2 5757   2.806   5.019   3.479  0.3349  1.2018 -0.9296
 1980SOL     OW 5758   3.584   0.418   2.028 -0.7228 -0.0287  0.1800
 1980SOL    HW1 5759   3.577   0.515   2.002  0.2333 -0.3511 -1.4631
 1980SOL    HW2 5760   3.493   0.381   2.041 -1.1088  1.0792  0.7923
 1981SOL     OW 5761   4.300   0.752   1.958 -0.7358  0.2669  0.2460
 1981SOL    HW1 5762   4.314   0.717   2.050 -0.8853 -3.5989 -1.0481
 1981SOL    HW2 5763   4.388   0.779   1.918 -0.5522  1.0192  1.1244
 1982SOL     OW 5764   1.959   0.748   1.344  0.0090 -0.0868 -0.0622
 1982SOL    HW1 5765   2.051   0.730   1.309  0.7512  1.8681  0.7294
 1982SOL    HW2 5766   1.948   0.847   1.359 -2.0258 -0.3406  0.4259
 1983SOL     OW 5767   2.768   0.558   2.309 -0.1825  0.5862  0.2524
 1983SOL    HW1 5768   2.735   0.611   2.231  3.4329  0.8069 -1.3174
 1983SOL    HW2 5769   2.758   0.612   2.393  0.5153  2.5315 -0.8527
 1984SOL     OW 5770   1.711   1.233   3.132  0.2073  0.3835  0.4541
 1984SOL    HW1 5771   1.613   1.248   3.146  0.2085  0.1505  0.7229
 1984SOL    HW2 5772   1.726   1.195   3.041 -0.0981 -0.9525  0.9396
 1985SOL     OW 5773   3.198   1.915   2.845  0.4568  0.0188 -0.1881
 1985SOL    HW1 5774   3.147   1.858   2.782  0.3550  0.4761 -0.5217
 1985SOL    HW2 5775   3.294   1.887   2.845  0.6753  0.7229 -1.3729
 1986SOL     OW 5776   1.830   1.022   3.621  0.3902  0.0843 -0.2369
 1986SOL    HW1 5777   1.800   0.989   3.531  1.1170 -0.9803 -0.1098
 1986SOL    HW2 5778   1.883   1.106   3.611 -0.9242  0.9019 -0.6380
 1987SOL     OW 5779   1.880   2.255   3.504  0.5001 -0.1538 -0.5027
 1987SOL    HW1 5780   1.899   2.339   3.555 -0.2937  0.8195 -1.7604
 1987SOL    HW2 5781   1.942   2.248   3.426  0.6297 -0.7980 -0.3479
 1988SOL     OW 5782   3.460   0.759   1.441 -0.2080  0.0499 -0.6354
 1988SOL    HW1 5783   3.466   0.806   1.529 -0.2705  0.6540 -0.9487
 1988SOL    HW2 5784   3.551   0.756   1.399 -0.1929 -0.1724 -0.5906
 1989SOL     OW 5785   1.536   0.704   3.583  0.0195 -0.3848 -0.5369
 1989SOL    HW1 5786   1.518   0.606   3.574  0.8623 -0.6093  0.0639
 1989SOL    HW2 5787   1.614   0.718   3.644 -1.7742  0.7728  1.6597
 1990SOL     OW 5788   1.980   4.667   1.853 -0.2811  0.4508  0.0262
 1990SOL    HW1 5789   2.055   4.642   1.792 -0.3303  2.1043 -0.7849
 1990SOL    HW2 5790   2.010   4.662   1.948 -0.2895 -2.4789 -0.0515
 1991SOL     OW 5791   3.125   1.984   1.661  0.0964 -0.2796 -0.3574
 1991SOL    HW1 5792   3.033   2.024   1.665 -0.5551 -1.8333  1.5406
 1991SOL    HW2 5793   3.192   2.058   1.649 -1.3039  0.9782 -0.8105
 1992SOL     OW 5794   2.335   4.830   2.099  0.2569 -0.2403  0.1910
 1992SOL    HW1 5795   2.243   4.801   2.071  0.8813 -0.9483 -1.2337
 1992SOL    HW2 5796   2.403   4.774   2.052  1.4195 -0.0479  1.6018
 1993SOL     OW 5797   3.491   0.899   2.777 -0.1940  0.3778 -0.0710
 1993SOL    HW1 5798   3.448   0.837   2.842 -0.1543 -0.0826 -0.4803
 1993SOL    HW2 5799   3.530   0.977   2.826  1.2040 -0.7387  0.6361
 1994SOL     OW 5800   3.168   4.992   2.034 -0.0788  0.3908  0.4620
 1994SOL    HW1 5801   3.243   4.963   1.975 -1.1331 -1.4012 -0.0520
 1994SOL    HW2 5802   3.154   4.925   2.107 -1.4952  0.4335  0.2544
 1995SOL     OW 5803   4.287   2.020   1.924 -0.2078 -0.0240 -0.2752
 1995SOL    HW1 5804   4.366   2.021   1.863  0.1132 -1.3499  0.0764
 1995SOL    HW2 5805   4.298   2.090   1.994  1.7684 -1.5915  1.0828
 1996SOL     OW 5806   3.380   1.949   1.838 -0.1470  0.4057 -0.4148
 1996SOL    HW1 5807   3.464   1.899   1.860  0.2604  0.4555 -1.7934
 1996SOL    HW2 5808   3.352   1.929   1.744 -2.0384 -0.0962  0.2111
 1997SOL     OW 5809   3.711   0.989   2.591  0.0334  0.0252  0.3420
 1997SOL    HW1 5810   3.755   0.900   2.594 -2.0011 -1.0827 -0.7253
 1997SOL    HW2 5811   3.625   0.986   2.643 -0.2782  1.2334 -0.0580
 1998SOL     OW 5812   4.255   0.640   2.601 -0.1641  0.3681 -0.0654
 1998SOL    HW1 5813   4.308   0.561   2.571  0.3871  1.3575 -1.8853
 1998SOL    HW2 5814   4.159   0.613   2.612  0.2881 -0.9107  1.0216
 1999SOL     OW 5815   2.669   1.053   1.810  0.2801  0.0128  0.3963
 1999SOL    HW1 5816   2.578   1.073   1.773  1.3130 -0.1522 -2.5666
 1999SOL    HW2 5817   2.665   1.051   1.909 -1.9284  5.2167  0.7716
 2000SOL     OW 5818   4.424   2.197   3.127 -0.0512  0.1888 -0.3507
 2000SOL    HW1 5819   4.337   2.149   3.121 -0.6107  0.5597  2.8366
 2000SOL    HW2 5820   4.499   2.130   3.130 -0.3489 -0.2062 -1.3637
 2001SOL     OW 5821   1.725   2.030   3.506  0.3698 -0.4239  0.5331
 2001SOL    HW1 5822   1.626   2.016   3.500  0.2411 -1.3749  3.2601
 2001SOL    HW2 5823   1.744   2.127   3.520  0.0801  0.1603 -2.5320
 2002SOL     OW 5824   2.461   2.173   4.605 -0.5705 -0.1004 -0.2351
 2002SOL    HW1 5825   2.436   2.195   4.511  0.6659  1.5873 -0.1991
 2002SOL    HW2 5826   2.559   2.157   4.611 -0.0764  2.8317  1.2314
 2003SOL     OW 5827   2.819   2.412   3.390 -0.5228  0.6651  0.5382
 2003SOL    HW1 5828   2.770   2.429   3.304 -1.7479  0.4296  1.1608
 2003SOL    HW2 5829   2.763   2.444   3.466 -1.3323 -2.6753  1.5349
 2004SOL     OW 5830   3.858   0.893   1.664  0.0385 -0.4561  0.1225
 2004SOL    HW1 5831   3.809   0.822   1.614 -2.7199  0.6120  1.1086
 2004SOL    HW2 5832   3.891   0.962   1.599 -0.1296 -0.9888 -0.5452
 2005SOL     OW 5833   2.829   4.823   1.593 -0.0923  0.0275 -0.6355
 2005SOL    HW1 5834   2.807   4.756   1.522 -1.7818  1.7789 -1.8833
 2005SOL    HW2 5835   2.910   4.875   1.566 -0.7794  0.7489 -1.3996
 2006SOL     OW 5836   2.664   1.677   4.863 -0.5513 -0.5427 -0.0722
 2006SOL    HW1 5837   2.746   1.726   4.831 -0.9498  0.9877  1.1012
 2006SOL    HW2 5838   2.586   1.703   4.807 -1.4073  2.7281  2.3499
 2007SOL     OW 5839   2.759   1.259   2.252  0.4971 -0.1441  0.2032
 2007SOL    HW1 5840   2.802   1.345   2.281  2.1079 -0.7431 -0.3143
 2007SOL    HW2 5841   2.693   1.230   2.322 -1.8568  2.6641 -0.6681
 2008SOL     OW 5842   2.929   1.546   4.162  0.2143 -0.0838  0.5963
 2008SOL    HW1 5843   2.916   1.469   4.100 -0.4868  1.1601 -0.8600
 2008SOL    HW2 5844   2.942   1.630   4.110  1.0565  0.8025  2.1412
 2009SOL     OW 5845   2.787   4.330   4.544 -0.4329 -0.1644  0.0100
 2009SOL    HW1 5846   2.871   4.364   4.501 -1.3295 -0.1024 -1.7828
 2009SOL    HW2 5847   2.771   4.379   4.630  2.4464 -1.6495  1.5253
 2010SOL     OW 5848   2.075   0.805   3.484 -0.0690  0.1212 -0.0462
 2010SOL    HW1 5849   2.002   0.849   3.432 -2.5832 -0.4880  2.6569
 2010SOL    HW2 5850   2.118   0.872   3.544  0.2581  0.0863 -0.2409
 2011SOL     OW 5851   2.708   1.217   3.253  0.0705 -0.0654  0.3122
 2011SOL    HW1 5852   2.665   1.273   3.324  0.5768  1.7216 -0.7047
 2011SOL    HW2 5853   2.647   1.143   3.227 -1.1830  0.7334  0.8747
 2012SOL     OW 5854   2.456   0.336   1.789 -0.0858  0.5863  0.0203
 2012SOL    HW1 5855   2.501   0.309   1.874  1.3373  2.9134  0.1028
 2012SOL    HW2 5856   2.358   0.344   1.803  0.1391  0.9519  1.4813
 2013SOL     OW 5857   3.510   1.981   2.510 -0.4812 -0.7441  0.5109
 2013SOL    HW1 5858   3.526   2.051   2.579  0.7165 -0.3666 -0.1312
 2013SOL    HW2 5859   3.582   1.912   2.515  0.3274 -0.0834 -1.1203
 2014SOL     OW 5860   3.629   2.458   3.282  0.2324 -0.4471 -0.3712
 2014SOL    HW1 5861   3.537   2.426   3.303 -0.4866 -0.0985 -2.6453
 2014SOL    HW2 5862   3.623   2.550   3.241  1.8317  0.6470  1.6710
 2015SOL     OW 5863   4.718   4.753   0.768  0.1285 -0.0593 -0.2272
 2015SOL    HW1 5864   4.634   4.754   0.714  1.4245 -0.0792 -2.3903
 2015SOL    HW2 5865   4.696   4.754   0.865 -2.3415  0.1030 -0.7290
 2016SOL     OW 5866   2.436   1.548   2.684 -0.2787  0.0403  0.6674
 2016SOL    HW1 5867   2.449   1.587   2.593 -0.9617  0.2237  0.6474
 2016SOL    HW2 5868   2.500   1.592   2.748  1.6139 -1.4687 -0.0870
 2017SOL     OW 5869   1.791   1.200   4.299 -0.1928  0.1064  0.4200
 2017SOL    HW1 5870   1.828   1.197   4.391 -1.1366 -1.1388  0.7886
 2017SOL    HW2 5871   1.698   1.236   4.301 -0.3001 -0.1317 -0.0152
 2018SOL     OW 5872   2.855   0.497   2.672 -0.6443  0.1259 -0.2978
 2018SOL    HW1 5873   2.847   0.570   2.604 -0.3173 -0.1078 -0.5949
 2018SOL    HW2 5874   2.900   0.418   2.630 -0.6177 -0.0933  0.1394
 2019SOL     OW 5875   2.416   3.928   3.940 -0.6057 -0.5115 -0.1179
 2019SOL    HW1 5876   2.460   3.939   3.851 -2.1034 -0.4838 -0.8817
 2019SOL    HW2 5877   2.398   4.018   3.980 -0.9382 -0.4993 -0.2964
 2020SOL     OW 5878   3.042   0.384   3.165  0.2439 -0.3441 -0.6869
 2020SOL    HW1 5879   3.013   0.448   3.094  0.4160  0.2764 -0.2040
 2020SOL    HW2 5880   2.970   0.377   3.234  0.9093  0.6455  0.1399
 2021SOL     OW 5881   1.913   1.295   3.572 -0.2255 -0.1913  0.1478
 2021SOL    HW1 5882   1.850   1.366   3.604  0.6962 -0.4437  2.7595
 2021SOL    HW2 5883   2.004   1.334   3.560 -0.4875 -0.1612 -2.1496
 2022SOL     OW 5884   3.742   0.332   3.504 -0.6413  0.2640 -0.1400
 2022SOL    HW1 5885   3.775   0.288   3.588  1.3036  0.3881 -0.7908
 2022SOL    HW2 5886   3.658   0.286   3.474  2.5066 -4.9902 -2.1858
 2023SOL     OW 5887   4.126   4.968   1.468  0.1357  0.5983 -0.1535
 2023SOL    HW1 5888   4.027   4.950   1.465  0.3340 -1.1899  1.6933
 2023SOL    HW2 5889   4.173   4.901   1.411  0.3339  0.7771 -0.1971
 2024SOL     OW 5890   1.528   0.820   1.590  0.0967  0.1043  0.4561
 2024SOL    HW1 5891   1.506   0.900   1.534  0.9313 -1.9336 -3.0570
 2024SOL    HW2 5892   1.598   0.845   1.657 -0.0898  2.4374 -0.1306
 2025SOL     OW 5893   1.739   0.711   2.469  0.1684  0.3833  0.1259
 2025SOL    HW1 5894   1.658   0.656   2.451  0.3270  0.3357 -0.4820
 2025SOL    HW2 5895   1.814   0.651   2.499  0.2464  0.3062 -0.2178
 2026SOL     OW 5896   1.557   4.322   2.273  0.3692  0.1429  0.2599
 2026SOL    HW1 5897   1.562   4.292   2.369 -2.1041 -1.7412 -0.0876
 2026SOL    HW2 5898   1.474   4.376   2.260  0.1579 -0.4563 -0.9882
 2027SOL     OW 5899   1.939   4.119   4.313 -0.2133 -0.1677 -0.1869
 2027SOL    HW1 5900   1.886   4.042   4.350  0.5623 -0.3810  0.5214
 2027SOL    HW2 5901   1.900   4.205   4.346 -0.1594 -0.3215  0.2899
 2028SOL     OW 5902   2.280   2.952   4.165 -0.1238 -0.0425 -0.3466
 2028SOL    HW1 5903   2.232   2.866   4.183 -0.9165  0.6925  1.3136
 2028SOL    HW2 5904   2.364   2.955   4.219 -0.2255  0.3189 -0.2071
 2029SOL     OW 5905   3.172   0.917   2.780 -0.0726 -0.0930  0.0059
 2029SOL    HW1 5906   3.208   0.981   2.847 -1.0140 -0.6024  1.0406
 2029SOL    HW2 5907   3.228   0.834   2.778  0.6923  0.4254 -0.7751
 2030SOL     OW 5908   3.167   0.859   3.534  0.2641  0.4604  0.3051
 2030SOL    HW1 5909   3.237   0.909   3.484  0.0147 -0.0613 -0.5874
 2030SOL    HW2 5910   3.181   0.761   3.522 -0.9861  0.3487 -0.4220
 2031SOL     OW 5911   2.928   2.170   1.117  0.0086  0.3897 -0.2957
 2031SOL    HW1 5912   2.895   2.197   1.208  0.8327  2.5176 -0.5826
 2031SOL    HW2 5913   2.935   2.250   1.059 -0.3827 -0.9271 -2.2442
 2032SOL     OW 5914   3.332   1.517   3.246 -0.5802  0.6785 -0.2976
 2032SOL    HW1 5915   3.423   1.503   3.207 -0.5536 -0.4108  0.1112
 2032SOL    HW2 5916   3.282   1.431   3.245 -1.3067  1.0857  0.2319
 2033SOL     OW 5917   1.992   0.040   2.213  0.5457 -0.1037  0.3851
 2033SOL    HW1 5918   2.000   0.125   2.160 -0.1692  0.0619  0.5304
 2033SOL    HW2 5919   1.934   0.056   2.293 -0.7330 -1.0553 -0.3104
 2034SOL     OW 5920   4.360   0.675   2.210  0.3525 -0.0327  0.0894
 2034SOL    HW1 5921   4.438   0.612   2.216 -2.1009 -3.1578  2.2194
 2034SOL    HW2 5922   4.365   0.740   2.285  0.0131 -1.4333  1.3667
 2035SOL     OW 5923   3.798   1.765   1.268  0.3434  0.7159 -0.1224
 2035SOL    HW1 5924   3.813   1.848   1.215 -0.1653  0.4699 -0.6670
 2035SOL    HW2 5925   3.699   1.747   1.274  0.3449  1.0960  1.4746
 2036SOL     OW 5926   2.445   5.065   2.783 -0.8219  0.1383  0.3424
 2036SOL    HW1 5927   2.400   5.050   2.695 -0.5611  0.4414  0.1569
 2036SOL    HW2 5928   2.509   5.141   2.775  0.6479 -1.0579  0.2607
 2037SOL     OW 5929   2.278   4.874   3.178 -0.0210  0.0743  0.4280
 2037SOL    HW1 5930   2.339   4.856   3.101 -0.3893  0.6163  0.0040
 2037SOL    HW2 5931   2.188   4.835   3.159 -0.6275  1.6911 -0.1988
 2038SOL     OW 5932   2.391   0.366   3.025 -0.1962  0.1667 -0.2536
 2038SOL    HW1 5933   2.351   0.278   3.049  0.0905  0.1669  0.2264
 2038SOL    HW2 5934   2.377   0.384   2.927 -0.9562 -0.0481 -0.1885
 2039SOL     OW 5935   2.901   0.122   4.930  0.3227 -0.3385  0.2260
 2039SOL    HW1 5936   2.941   0.174   4.854 -0.7432 -1.0442 -0.8455
 2039SOL    HW2 5937   2.933   0.028   4.927  2.7784  0.2992  2.5558
 2040SOL     OW 5938   2.822   0.245   2.880  0.7024 -0.1706 -0.4360
 2040SOL    HW1 5939   2.773   0.282   2.959 -0.3164  0.2976 -1.2683
 2040SOL    HW2 5940   2.918   0.273   2.885  0.6475 -0.1482  0.6298
 2041SOL     OW 5941   0.896   0.533   0.769 -0.2447 -0.5034 -0.7139
 2041SOL    HW1 5942   0.963   0.479   0.718  0.3308 -0.7881  0.3201
 2041SOL    HW2 5943   0.914   0.630   0.754  2.2977 -0.4686  1.8102
 2042SOL     OW 5944   2.198   1.994   2.201  0.1833  0.5908  0.5675
 2042SOL    HW1 5945   2.175   2.032   2.111 -0.2410  0.1705  0.4943
 2042SOL    HW2 5946   2.118   1.949   2.240  1.0036 -1.4659  0.0226
 2043SOL     OW 5947   3.033   1.210   2.310  0.4020  0.2134  0.7621
 2043SOL    HW1 5948   2.940   1.209   2.275  0.8570  1.3162 -0.5399
 2043SOL    HW2 5949   3.031   1.215   2.410 -0.9153 -0.9535  0.8222
 2044SOL     OW 5950   2.394   4.750   3.599 -0.2254  0.0420 -0.5767
 2044SOL    HW1 5951   2.452   4.788   3.671  0.1133 -0.4063 -0.6024
 2044SOL    HW2 5952   2.298   4.772   3.617  0.0134  1.4201 -0.9310
 2045SOL     OW 5953   1.605   2.089   3.119  0.0679 -0.3501 -0.4213
 2045SOL    HW1 5954   1.523   2.042   3.149 -1.0829  0.9797 -1.3393
 2045SOL    HW2 5955   1.657   2.031   3.056 -1.0210 -0.5969 -1.0997
 2046SOL     OW 5956   2.382   0.866   3.028 -0.3235  0.3786  0.4819
 2046SOL    HW1 5957   2.291   0.901   3.048 -1.6335 -0.6911 -3.0226
 2046SOL    HW2 5958   2.386   0.769   3.051 -1.0935 -0.2823 -1.8946
 2047SOL     OW 5959   2.792   5.076   3.849  0.1866  0.4400  0.6089
 2047SOL    HW1 5960   2.824   4.988   3.815 -1.0944  0.1452  0.1134
 2047SOL    HW2 5961   2.867   5.124   3.895  1.1020 -0.5459  0.1641
 2048SOL     OW 5962   2.192   0.631   1.614  0.4761  0.5407 -0.3568
 2048SOL    HW1 5963   2.093   0.619   1.629  0.2294 -0.2268 -2.3326
 2048SOL    HW2 5964   2.213   0.728   1.608  0.0495  0.7585  1.2169
 2049SOL     OW 5965   4.318   1.441   3.275  0.1705 -0.5991  0.3898
 2049SOL    HW1 5966   4.387   1.499   3.231  1.1396 -2.2469 -0.3575
 2049SOL    HW2 5967   4.359   1.355   3.303 -0.7488 -0.1717  3.3878
 2050SOL     OW 5968   1.797   1.570   2.904  0.3892  0.0654 -0.1094
 2050SOL    HW1 5969   1.836   1.495   2.852 -1.9478 -1.3074 -0.0372
 2050SOL    HW2 5970   1.794   1.653   2.847 -0.6053 -0.9744 -1.6455
 2051SOL     OW 5971   2.490   4.435   4.271 -0.4990  0.9035 -0.2450
 2051SOL    HW1 5972   2.571   4.383   4.244 -0.4858  0.9967 -0.3886
 2051SOL    HW2 5973   2.417   4.419   4.205 -0.6069  0.7984 -0.1005
 2052SOL     OW 5974   2.204   1.932   3.751  0.1141  0.2934 -0.7920
 2052SOL    HW1 5975   2.150   1.978   3.680  0.8457  2.1423 -0.2200
 2052SOL    HW2 5976   2.158   1.941   3.839 -0.1039 -0.7663 -0.7889
 2053SOL     OW 5977   1.998   4.830   1.250 -0.7831 -0.1949 -0.1969
 2053SOL    HW1 5978   1.902   4.857   1.250 -0.9406 -0.6653 -1.4474
 2053SOL    HW2 5979   2.054   4.908   1.222 -0.7731  0.1332  0.7133
 2054SOL     OW 5980   1.879   1.813   3.445 -0.2729  0.5950 -0.3668
 2054SOL    HW1 5981   1.822   1.892   3.469 -0.6381 -0.1061  1.2269
 2054SOL    HW2 5982   1.826   1.751   3.388 -0.7375  0.5019  0.1483
 2055SOL     OW 5983   3.802   1.100   2.374  0.2948  0.0108  0.0966
 2055SOL    HW1 5984   3.880   1.043   2.348  1.0012 -0.2747  2.5826
 2055SOL    HW2 5985   3.763   1.066   2.460 -0.8814  1.7447  0.2980
 2056SOL     OW 5986   3.423   1.404   2.234 -0.0335 -0.4653 -0.7094
 2056SOL    HW1 5987   3.344   1.382   2.176 -1.0602 -1.3687  0.9295
 2056SOL    HW2 5988   3.487   1.327   2.234  0.0776 -0.3727 -0.8243
 2057SOL     OW 5989   3.430   0.877   1.735 -0.1918 -0.3149 -0.5106
 2057SOL    HW1 5990   3.335   0.847   1.726 -0.2362 -0.3891  0.1779
 2057SOL    HW2 5991   3.460   0.866   1.830  0.6917 -0.8665 -0.8409
 2058SOL     OW 5992   4.085   1.767   2.305 -0.2728  0.0192  0.0302
 2058SOL    HW1 5993   4.001   1.822   2.309 -0.1379  0.1724  1.2997
 2058SOL    HW2 5994   4.063   1.673   2.329 -0.7982 -0.9490 -3.6835
 2059SOL     OW 5995   2.867   0.745   1.917  0.2851 -0.3734  0.0752
 2059SOL    HW1 5996   2.881   0.803   1.837  1.5181 -0.5063  0.1812
 2059SOL    HW2 5997   2.894   0.651   1.896  0.2110 -0.4999  0.5245
 2060SOL     OW 5998   3.212   2.312   3.716  0.3632  0.7300  0.1180
 2060SOL    HW1 5999   3.252   2.403   3.709 -0.3803  0.9766 -1.2381
 2060SOL    HW2 6000   3.126   2.309   3.665 -0.1831 -0.4345  1.0474
 2061SOL     OW 6001   4.475   4.871   3.146  0.1164  0.1687 -0.8284
 2061SOL    HW1 6002   4.446   4.858   3.051 -0.8495 -0.4547 -0.4707
 2061SOL    HW2 6003   4.574   4.863   3.152  0.1809  0.1308 -1.7754
 2062SOL     OW 6004   3.095   1.372   3.012  0.6443  1.0164  0.2935
 2062SOL    HW1 6005   3.025   1.436   2.981  0.1696  0.5949  0.4688
 2062SOL    HW2 6006   3.051   1.292   3.053  1.2449  1.0792  1.0864
 2063SOL     OW 6007   2.992   1.696   3.922 -0.1159  0.4478  0.3767
 2063SOL    HW1 6008   2.983   1.792   3.900 -0.3032  0.5704  0.9638
 2063SOL    HW2 6009   3.089   1.670   3.919 -0.0930  0.5797 -0.0670
 2064SOL     OW 6010   4.119   0.537   2.202  1.0283  0.0819 -0.6626
 2064SOL    HW1 6011   4.110   0.479   2.122  0.5018 -0.6596 -0.0753
 2064SOL    HW2 6012   4.208   0.583   2.200  1.6436 -1.0902 -0.8986
 2065SOL     OW 6013   1.848   4.775   2.895  0.3576  0.0122 -0.1472
 2065SOL    HW1 6014   1.864   4.860   2.845 -1.7389  2.1866  2.5098
 2065SOL    HW2 6015   1.753   4.746   2.882  0.6054 -1.0026  0.2455
 2066SOL     OW 6016   4.022   0.522   2.617  0.2771 -0.1506 -0.4974
 2066SOL    HW1 6017   4.069   0.459   2.555 -0.4956 -0.7827 -0.4602
 2066SOL    HW2 6018   3.947   0.474   2.663 -0.4172  0.8296 -0.5698
 2067SOL     OW 6019   2.359   1.124   2.056 -0.0500 -0.0347  0.3943
 2067SOL    HW1 6020   2.306   1.169   1.984 -1.1434 -1.2925  0.3777
 2067SOL    HW2 6021   2.453   1.157   2.053 -0.3460  0.7679 -0.8762
 2068SOL     OW 6022   0.505   4.563   3.921  0.1955 -0.5053  0.8566
 2068SOL    HW1 6023   0.517   4.583   4.018  1.2128  2.6294  0.1934
 2068SOL    HW2 6024   0.561   4.626   3.867  0.4112 -2.7872 -1.7827
 2069SOL     OW 6025   2.447   0.646   1.917  0.5184  0.0296 -0.3411
 2069SOL    HW1 6026   2.467   0.615   1.824  0.1475  0.2653 -0.5039
 2069SOL    HW2 6027   2.394   0.731   1.913 -0.7073 -0.6791  0.0434
 2070SOL     OW 6028   2.879   1.212   1.380 -0.6060  0.4439  0.4667
 2070SOL    HW1 6029   2.783   1.236   1.394 -1.2818 -1.9266  0.4194
 2070SOL    HW2 6030   2.925   1.284   1.328 -2.6533  1.1000 -0.5296
 2071SOL     OW 6031   2.841   4.587   3.304  0.0665  0.2144  0.9149
 2071SOL    HW1 6032   2.746   4.618   3.314 -0.2039 -0.3505  0.1579
 2071SOL    HW2 6033   2.851   4.535   3.219  0.6151 -1.3325  1.8668
 2072SOL     OW 6034   3.389   0.730   1.098 -0.0871 -0.1975 -0.1104
 2072SOL    HW1 6035   3.411   0.650   1.042 -1.2984 -0.5031 -0.1596
 2072SOL    HW2 6036   3.462   0.798   1.088 -0.1775 -0.3279 -1.8819
 2073SOL     OW 6037   3.019   1.265   2.585 -0.2736  0.1884  0.1118
 2073SOL    HW1 6038   3.056   1.331   2.650 -0.9044 -0.2325  0.9189
 2073SOL    HW2 6039   2.921   1.251   2.602  0.1189 -2.0298  0.9488
 2074SOL     OW 6040   2.703   1.419   4.803  0.6420 -0.1194 -0.6692
 2074SOL    HW1 6041   2.688   1.515   4.829  0.6346 -0.5171  0.8825
 2074SOL    HW2 6042   2.621   1.366   4.822  0.8803 -0.5638 -0.8828
 2075SOL     OW 6043   3.498   1.436   2.549 -0.3264 -0.1423  0.3211
 2075SOL    HW1 6044   3.466   1.372   2.619 -2.4410  0.6062  0.1190
 2075SOL    HW2 6045   3.475   1.399   2.458 -2.0210  1.0411  0.2151
 2076SOL     OW 6046   3.370   2.405   3.345  0.0585  0.2746  0.5866
 2076SOL    HW1 6047   3.310   2.326   3.330 -1.3194  1.5105 -0.9147
 2076SOL    HW2 6048   3.369   2.430   3.441 -1.3111 -0.1721  0.7118
 2077SOL     OW 6049   2.337   1.483   1.834 -0.2498  0.3509  0.5992
 2077SOL    HW1 6050   2.365   1.525   1.920  0.3618 -1.0593  1.1125
 2077SOL    HW2 6051   2.418   1.463   1.778 -0.4798 -0.6133  0.5957
 2078SOL     OW 6052   2.168   1.541   2.061 -0.3706  0.3990  0.4910
 2078SOL    HW1 6053   2.251   1.597   2.060 -1.2765  1.8319  1.0580
 2078SOL    HW2 6054   2.097   1.587   2.007 -0.1098 -2.0303 -2.1714
 2079SOL     OW 6055   4.036   0.384   3.501 -0.0996 -0.4273 -0.0704
 2079SOL    HW1 6056   3.937   0.396   3.502 -0.1802 -1.0737  0.5884
 2079SOL    HW2 6057   4.058   0.290   3.474  0.2248 -1.1006  2.3791
 2080SOL     OW 6058   1.041   1.673   1.031 -0.6552  0.1263 -0.5227
 2080SOL    HW1 6059   1.098   1.653   0.952 -1.3718 -4.2707 -0.2220
 2080SOL    HW2 6060   1.099   1.702   1.108  0.8094 -0.9580 -1.1596
 2081SOL     OW 6061   1.976   1.880   2.265 -0.1336 -0.2294 -0.1740
 2081SOL    HW1 6062   1.893   1.936   2.275 -0.3515 -0.7969  1.3423
 2081SOL    HW2 6063   1.960   1.790   2.304  1.0872 -0.4673 -0.2067
 2082SOL     OW 6064   2.061   4.281   2.331  0.1889 -0.2964 -0.5540
 2082SOL    HW1 6065   2.010   4.207   2.288 -0.3352 -0.7643  0.8413
 2082SOL    HW2 6066   2.094   4.253   2.421  1.6524  0.5127 -0.7993
 2083SOL     OW 6067   2.051   4.159   0.424  0.0892  0.0893 -0.4254
 2083SOL    HW1 6068   1.996   4.170   0.342  2.5311 -0.1200 -2.2023
 2083SOL    HW2 6069   2.069   4.249   0.465 -3.5500  0.0243  1.7300
 2084SOL     OW 6070   2.163   1.695   3.593  0.1587  0.0155 -0.2305
 2084SOL    HW1 6071   2.238   1.710   3.528  1.4900 -1.3560  0.8967
 2084SOL    HW2 6072   2.177   1.753   3.673  0.7918 -1.1657  0.5516
 2085SOL     OW 6073   3.151   1.437   2.724  0.2272 -0.4005  0.3777
 2085SOL    HW1 6074   3.093   1.498   2.777  0.4369  1.6074 -1.5421
 2085SOL    HW2 6075   3.243   1.475   2.717  0.2829 -0.7272 -1.1189
 2086SOL     OW 6076   2.528   2.337   1.660 -0.2544 -0.2997  0.1561
 2086SOL    HW1 6077   2.504   2.401   1.733 -0.9140  0.9233 -1.0612
 2086SOL    HW2 6078   2.447   2.321   1.603  0.6879  0.3841 -1.4492
 2087SOL     OW 6079   1.629   4.688   3.353 -0.3630 -0.1525 -0.6727
 2087SOL    HW1 6080   1.728   4.688   3.340 -0.2018 -0.7522  0.4042
 2087SOL    HW2 6081   1.608   4.684   3.451 -1.4638  1.6124 -0.7860
 2088SOL     OW 6082   2.595   0.941   2.881 -0.1488  0.5549  0.0264
 2088SOL    HW1 6083   2.523   0.907   2.942  0.5897 -0.0819  0.5617
 2088SOL    HW2 6084   2.609   1.039   2.898 -0.8730  0.6856 -0.0808
 2089SOL     OW 6085   3.067   3.884   3.050 -0.1754  0.0256 -0.5745
 2089SOL    HW1 6086   3.133   3.950   3.015 -0.6332 -0.0236 -1.5739
 2089SOL    HW2 6087   2.992   3.874   2.985  0.2247 -1.9947 -0.7986
 2090SOL     OW 6088   2.310   1.376   3.341 -0.1553 -0.4826  0.0292
 2090SOL    HW1 6089   2.284   1.288   3.304 -0.3845  0.0762 -1.1949
 2090SOL    HW2 6090   2.301   1.446   3.270  1.2002  0.3191  0.6068
 2091SOL     OW 6091   2.666   1.907   3.948 -0.0572  0.1762 -0.2416
 2091SOL    HW1 6092   2.744   1.949   3.901 -0.3093  1.3960  0.3664
 2091SOL    HW2 6093   2.637   1.826   3.899  0.4469  0.7344 -1.5062
 2092SOL     OW 6094   4.464   1.620   3.092  0.2178  0.7901 -0.2956
 2092SOL    HW1 6095   4.514   1.533   3.087 -1.1069  0.0421 -0.9445
 2092SOL    HW2 6096   4.467   1.666   3.004 -0.1789  0.7740 -0.3185
 2093SOL     OW 6097   4.182   3.258   2.123 -0.0492  0.0505 -0.0605
 2093SOL    HW1 6098   4.157   3.162   2.136 -1.9348  0.7825  2.4161
 2093SOL    HW2 6099   4.251   3.284   2.191 -1.2564  0.9922  0.8409
 2094SOL     OW 6100   2.047   0.751   2.697 -0.0679 -0.0683 -0.1608
 2094SOL    HW1 6101   2.146   0.760   2.694  0.2655 -2.4540  1.2424
 2094SOL    HW2 6102   2.017   0.684   2.629 -0.5998 -0.1807  0.1759
 2095SOL     OW 6103   3.673   1.913   3.265 -0.1732  0.4799 -0.3758
 2095SOL    HW1 6104   3.658   1.935   3.169 -2.3334  1.0116  0.0293
 2095SOL    HW2 6105   3.623   1.830   3.289  0.1461  0.4874  0.3667
 2096SOL     OW 6106   3.449   0.752   2.550  0.1384  0.2021 -0.0389
 2096SOL    HW1 6107   3.453   0.780   2.646  1.2177  0.3797 -0.1261
 2096SOL    HW2 6108   3.392   0.671   2.541  0.1435  0.1068  0.7722
 2097SOL     OW 6109   2.610   1.259   1.355 -0.4233  0.6456  0.1591
 2097SOL    HW1 6110   2.553   1.240   1.275 -0.8991  1.2885  0.3381
 2097SOL    HW2 6111   2.558   1.312   1.422  0.0193  0.2551  0.8345
 2098SOL     OW 6112   2.204   1.125   3.286  0.5061  0.0196 -0.1970
 2098SOL    HW1 6113   2.191   1.037   3.241  2.6426 -0.4033 -0.0633
 2098SOL    HW2 6114   2.114   1.168   3.300 -0.8036 -2.8084  1.1468
 2099SOL     OW 6115   1.941   1.219   3.302 -0.3113  0.2665  0.0633
 2099SOL    HW1 6116   1.920   1.267   3.387 -0.8882  1.0674 -0.5146
 2099SOL    HW2 6117   1.863   1.227   3.239  0.2866  0.0844 -0.7187
 2100SOL     OW 6118   2.773   1.281   5.047  0.0852  0.3308 -0.4282
 2100SOL    HW1 6119   2.759   1.331   5.133 -0.8722 -0.0387 -0.3564
 2100SOL    HW2 6120   2.733   1.333   4.972  0.2108  0.2714 -0.5356
 2101SOL     OW 6121   3.613   2.722   3.154  0.1380 -0.0256 -0.1049
 2101SOL    HW1 6122   3.686   2.757   3.095 -0.9158  1.7778 -0.4223
 2101SOL    HW2 6123   3.530   2.709   3.100 -0.0669 -1.1133  0.4462
 2102SOL     OW 6124   2.773   1.758   3.331  0.1536 -0.4428  0.5140
 2102SOL    HW1 6125   2.782   1.732   3.427 -0.2222 -0.8755  0.4343
 2102SOL    HW2 6126   2.815   1.848   3.316  0.7265 -0.6317  0.9615
 2103SOL     OW 6127   1.010   1.677   2.569  0.9025 -0.1225  0.3264
 2103SOL    HW1 6128   1.066   1.608   2.523 -0.6766 -0.6797 -0.8443
 2103SOL    HW2 6129   0.932   1.701   2.511 -0.9816 -0.5496  2.5256
 2104SOL     OW 6130   1.964   0.868   4.223  0.3172 -0.1103 -0.0427
 2104SOL    HW1 6131   2.019   0.928   4.281  1.0131  1.2788 -2.0370
 2104SOL    HW2 6132   1.870   0.901   4.221 -0.2328 -1.3803  1.8550
 2105SOL     OW 6133   3.350   1.231   2.708  0.1118  0.3765 -0.1250
 2105SOL    HW1 6134   3.262   1.277   2.691 -0.2781 -0.8873 -1.8169
 2105SOL    HW2 6135   3.335   1.133   2.719  1.0804  0.4292  2.0979
 2106SOL     OW 6136   2.225   0.353   3.896  0.1956 -0.6522 -0.1598
 2106SOL    HW1 6137   2.306   0.304   3.928  0.4995 -0.1229 -0.1034
 2106SOL    HW2 6138   2.253   0.429   3.836 -0.1558  0.4008  0.9752
 2107SOL     OW 6139   3.839   1.411   3.060 -0.5469  0.0973 -0.3411
 2107SOL    HW1 6140   3.815   1.466   2.980  0.4012  0.1342 -0.6124
 2107SOL    HW2 6141   3.921   1.449   3.103 -2.1733  1.3423  1.8963
 2108SOL     OW 6142   1.599   5.045   2.846  0.0510 -0.6343 -0.7969
 2108SOL    HW1 6143   1.597   4.961   2.901 -0.8485  0.1263  0.3983
 2108SOL    HW2 6144   1.662   5.111   2.888 -0.7729  0.0182 -0.5551
 2109SOL     OW 6145   1.861   1.357   2.774 -0.3226  0.2297  0.1182
 2109SOL    HW1 6146   1.954   1.338   2.743 -0.1587  0.7587  0.2786
 2109SOL    HW2 6147   1.819   1.273   2.805  0.3429  0.0987  0.6840
 2110SOL     OW 6148   3.761   0.828   3.021  0.0275 -0.0885  0.0279
 2110SOL    HW1 6149   3.738   0.734   3.046  2.3422 -0.4121  1.2031
 2110SOL    HW2 6150   3.828   0.827   2.947  0.4082  0.6164  0.3568
 2111SOL     OW 6151   3.114   4.749   2.151 -0.2107  0.4646  0.0693
 2111SOL    HW1 6152   3.020   4.784   2.153 -0.4273  0.1927 -2.2718
 2111SOL    HW2 6153   3.112   4.649   2.143  0.3710  0.1626  2.6749
 2112SOL     OW 6154   3.150   1.050   2.536  0.2092  0.0545 -0.2454
 2112SOL    HW1 6155   3.109   1.139   2.556  0.9800  1.0382 -2.6509
 2112SOL    HW2 6156   3.136   0.989   2.614 -1.1125  1.9765  1.1352
 2113SOL     OW 6157   2.777   2.275   3.074 -0.0355 -0.4786 -0.5105
 2113SOL    HW1 6158   2.717   2.342   3.116  0.5041 -0.0490 -0.4161
 2113SOL    HW2 6159   2.869   2.312   3.067  0.4454 -1.4601  0.2132
 2114SOL     OW 6160   2.759   1.528   2.673 -0.7864 -0.8806 -0.1274
 2114SOL    HW1 6161   2.707   1.602   2.715 -0.7209 -1.3003  0.7067
 2114SOL    HW2 6162   2.740   1.442   2.721 -0.8246 -1.3970 -1.0541
 2115SOL     OW 6163   3.522   0.593   2.892 -0.3042 -0.4791  0.2978
 2115SOL    HW1 6164   3.454   0.654   2.932  0.8894  0.6573  0.6520
 2115SOL    HW2 6165   3.590   0.569   2.962 -0.7391 -2.2409  0.1704
 2116SOL     OW 6166   3.859   4.734   2.492 -0.1633  0.6076  0.2122
 2116SOL    HW1 6167   3.928   4.716   2.561 -0.0223 -0.1540 -0.1268
 2116SOL    HW2 6168   3.860   4.832   2.470 -0.2811  0.8894  1.3490
 2117SOL     OW 6169   2.066   0.151   2.680 -0.5014 -0.0760 -0.1430
 2117SOL    HW1 6170   1.970   0.130   2.661 -0.6217  0.4033 -0.0650
 2117SOL    HW2 6171   2.080   0.158   2.779 -0.3911 -0.1117 -0.1556
 2118SOL     OW 6172   2.880   1.569   3.189 -0.4128  0.4041 -0.5646
 2118SOL    HW1 6173   2.846   1.642   3.249  1.5787 -0.6332  1.9849
 2118SOL    HW2 6174   2.970   1.595   3.153 -1.7561  1.2380 -3.7535
 2119SOL     OW 6175   2.230   5.049   3.948 -0.4247 -0.7308 -0.3054
 2119SOL    HW1 6176   2.254   4.956   3.976  0.5030 -0.6530 -0.8142
 2119SOL    HW2 6177   2.303   5.111   3.976  1.3987 -0.8531 -4.1718
 2120SOL     OW 6178   1.242   4.192   4.424 -0.0768 -0.7672  0.1296
 2120SOL    HW1 6179   1.244   4.117   4.358 -1.7157 -2.5516  1.9700
 2120SOL    HW2 6180   1.330   4.239   4.423  0.6964 -2.1124 -1.7367
 2121SOL     OW 6181   1.082   1.199   2.414 -0.0568 -0.2033  0.5197
 2121SOL    HW1 6182   1.052   1.168   2.504  1.5271 -2.0910  0.4496
 2121SOL    HW2 6183   1.177   1.172   2.399  0.3677  1.8228 -0.9510
 2122SOL     OW 6184   3.063   1.209   1.010  1.1499  0.1661 -0.1576
 2122SOL    HW1 6185   3.085   1.142   1.082 -1.0363 -1.8990 -1.2957
 2122SOL    HW2 6186   3.130   1.201   0.936  1.0250 -0.6135 -0.1900
 2123SOL     OW 6187   0.588   3.111   3.856 -0.1352  0.7308  0.0510
 2123SOL    HW1 6188   0.492   3.105   3.884 -0.0574  2.5624  0.8819
 2123SOL    HW2 6189   0.645   3.128   3.937  0.8793 -0.1857 -0.4520
 2124SOL     OW 6190   3.388   1.859   4.801 -0.0048  0.0168  0.1781
 2124SOL    HW1 6191   3.396   1.950   4.841  2.5820 -0.3994  0.7729
 2124SOL    HW2 6192   3.381   1.867   4.702  2.5712  0.8883 -0.0066
 2125SOL     OW 6193   4.116   0.119   3.467 -0.2465  0.3175  0.3696
 2125SOL    HW1 6194   4.081   0.045   3.526 -0.0534  0.9446  1.3018
 2125SOL    HW2 6195   4.212   0.101   3.445 -1.0952 -1.5416 -2.4051
 2126SOL     OW 6196   2.102   1.553   1.104  0.3826 -0.3883  0.2555
 2126SOL    HW1 6197   2.026   1.587   1.049  1.1757  0.2036 -0.4811
 2126SOL    HW2 6198   2.186   1.599   1.078  0.9428 -0.7756  1.3194
 2127SOL     OW 6199   2.646   0.484   5.078 -0.2796  0.2747  0.0124
 2127SOL    HW1 6200   2.560   0.437   5.059  0.4284 -0.5316 -1.3393
 2127SOL    HW2 6201   2.701   0.487   4.995  0.6841  1.4607  0.6626
 2128SOL     OW 6202   2.191   1.825   4.925  0.3860  0.1112 -0.3169
 2128SOL    HW1 6203   2.110   1.801   4.871  0.3538 -0.9337  0.1622
 2128SOL    HW2 6204   2.236   1.904   4.884  0.8385 -1.1384 -2.3774
 2129SOL     OW 6205   2.983   0.153   3.527 -0.2631  0.2105  0.0502
 2129SOL    HW1 6206   3.034   0.071   3.501 -0.0858  0.8214 -1.6585
 2129SOL    HW2 6207   2.886   0.129   3.539 -0.2367 -0.2245 -0.5578
 2130SOL     OW 6208   2.401   1.410   4.235 -0.5565  0.0031 -0.2415
 2130SOL    HW1 6209   2.440   1.424   4.144 -0.6299  0.5448 -0.1911
 2130SOL    HW2 6210   2.406   1.495   4.287  0.5079 -0.5882  0.6598
 2131SOL     OW 6211   2.951   0.601   4.227 -0.6958 -0.4044  0.2003
 2131SOL    HW1 6212   2.961   0.688   4.178 -2.0131  0.2304  0.9822
 2131SOL    HW2 6213   3.033   0.585   4.282  0.2077 -0.4392 -1.1096
 2132SOL     OW 6214   2.743   2.406   1.490 -0.3264  0.0726  0.2792
 2132SOL    HW1 6215   2.801   2.478   1.528 -0.5521 -0.5570  1.9380
 2132SOL    HW2 6216   2.664   2.392   1.550 -0.9382 -0.7117 -0.6718
 2133SOL     OW 6217   3.140   1.385   0.509 -0.5591  0.2563 -0.5943
 2133SOL    HW1 6218   3.124   1.289   0.488  0.1205  0.2880 -1.3146
 2133SOL    HW2 6219   3.201   1.393   0.588  0.5396  0.0604 -1.3986
 2134SOL     OW 6220   2.351   0.949   4.061 -0.4855  0.1961 -0.6575
 2134SOL    HW1 6221   2.313   1.042   4.058  2.5933  1.6821  1.4747
 2134SOL    HW2 6222   2.385   0.929   4.153  1.8635 -1.7532 -1.8297
 2135SOL     OW 6223   0.768   0.114   4.116  0.1115  0.2190  0.1426
 2135SOL    HW1 6224   0.803   0.026   4.148  1.9958  1.1310  0.7296
 2135SOL    HW2 6225   0.711   0.156   4.187 -0.0760 -0.1258  0.1973
 2136SOL     OW 6226   4.030   2.070   0.066  0.4532 -0.9740  0.2117
 2136SOL    HW1 6227   3.954   2.134   0.062  1.7558  0.7124  0.9113
 2136SOL    HW2 6228   4.027   2.020   0.152  0.9088  0.1745  0.9256
 2137SOL     OW 6229   2.553   1.699   3.823 -0.2664 -0.2798 -0.1074
 2137SOL    HW1 6230   2.642   1.657   3.804 -0.9230 -1.6308 -0.3243
 2137SOL    HW2 6231   2.533   1.767   3.753  1.4849  1.5807  1.0680
 2138SOL     OW 6232   2.802   1.441   3.448  0.0787 -0.0156 -0.0229
 2138SOL    HW1 6233   2.842   1.476   3.363  1.1444 -1.7235 -0.2925
 2138SOL    HW2 6234   2.703   1.446   3.442  0.1655  2.0516 -0.3800
 2139SOL     OW 6235   4.627   1.257   4.171 -0.4578  0.1057  0.8164
 2139SOL    HW1 6236   4.655   1.310   4.251  1.3583 -0.6313  0.7272
 2139SOL    HW2 6237   4.644   1.311   4.088 -0.9734  0.3118  0.8380
 2140SOL     OW 6238   2.050   1.217   4.958  0.2393 -0.5918  0.6464
 2140SOL    HW1 6239   2.116   1.292   4.948 -0.0518 -0.1724  1.8096
 2140SOL    HW2 6240   2.098   1.130   4.948  0.6766 -0.2740 -0.1751
 2141SOL     OW 6241   2.109   0.061   4.177 -0.7936 -0.3286 -0.0151
 2141SOL    HW1 6242   2.052   0.062   4.095  0.8449 -0.5376 -1.1992
 2141SOL    HW2 6243   2.176   0.135   4.172 -2.4778  1.5676  2.5493
 2142SOL     OW 6244   2.109   0.480   4.103  0.0742  0.0481 -0.3656
 2142SOL    HW1 6245   2.166   0.427   4.040  1.5278  0.6576  0.3959
 2142SOL    HW2 6246   2.090   0.569   4.063  0.8535  0.3697 -0.0484
 2143SOL     OW 6247   3.918   1.588   4.397  1.0198 -0.4915 -0.1095
 2143SOL    HW1 6248   3.901   1.685   4.417 -1.4413 -1.3874  2.8267
 2143SOL    HW2 6249   3.889   1.568   4.304  1.7332  1.5884 -0.8349
 2144SOL     OW 6250   2.118   1.200   0.460 -0.2830  0.3696 -0.5542
 2144SOL    HW1 6251   2.055   1.233   0.531 -1.3544  0.5575 -1.5719
 2144SOL    HW2 6252   2.204   1.171   0.503 -0.5119  1.4634  0.7083
 2145SOL     OW 6253   4.445   2.026   3.608 -0.3597  0.0946 -0.2699
 2145SOL    HW1 6254   4.413   2.119   3.626 -1.0141  0.0226 -0.9832
 2145SOL    HW2 6255   4.516   2.028   3.538 -1.0884 -0.0184 -1.0276
 2146SOL     OW 6256   2.283   0.293   4.668  0.2049 -0.0680  0.4285
 2146SOL    HW1 6257   2.259   0.237   4.589 -2.0800  0.0975  0.9390
 2146SOL    HW2 6258   2.320   0.235   4.740 -0.9047 -0.7344  0.4751
 2147SOL     OW 6259   2.822   0.153   0.124  0.1990 -0.0585 -0.6206
 2147SOL    HW1 6260   2.835   0.148   0.025 -0.7922  0.6218 -0.7929
 2147SOL    HW2 6261   2.725   0.147   0.146  0.3192  0.9120  0.2366
 2148SOL     OW 6262   3.878   2.381   4.792 -0.2410 -0.1265 -0.6444
 2148SOL    HW1 6263   3.831   2.295   4.807 -1.3194  0.7930  1.7492
 2148SOL    HW2 6264   3.811   2.453   4.775  0.5749  0.4868 -1.3694
 2149SOL     OW 6265   2.940   0.230   4.668 -0.6369 -0.2937 -0.5852
 2149SOL    HW1 6266   2.969   0.143   4.628 -0.3897  0.1580 -1.3974
 2149SOL    HW2 6267   2.856   0.260   4.624 -2.6840 -1.7742  1.9874
 2150SOL     OW 6268   2.936   1.561   0.575 -0.2080 -0.3955  0.6548
 2150SOL    HW1 6269   2.910   1.530   0.666  0.3746  0.1391  1.0084
 2150SOL    HW2 6270   3.018   1.513   0.546 -1.7373 -2.3906 -0.6326
 2151SOL     OW 6271   2.350   5.086   0.652 -0.5467  0.6899 -0.1420
 2151SOL    HW1 6272   2.301   5.056   0.734  0.6302  0.8733  0.6483
 2151SOL    HW2 6273   2.379   5.006   0.599 -0.1078  0.5284  0.3415
 2152SOL     OW 6274   2.084   4.611   3.925  0.0358  0.0183 -0.5639
 2152SOL    HW1 6275   2.102   4.560   3.840  1.2538  1.0707 -0.9627
 2152SOL    HW2 6276   1.995   4.655   3.918  0.4969  0.8311 -1.7028
 2153SOL     OW 6277   3.051   0.956   4.126  0.0681  0.5390  0.4029
 2153SOL    HW1 6278   3.023   1.046   4.157 -1.0377  0.3450  0.0266
 2153SOL    HW2 6279   3.150   0.955   4.109  0.1335  1.5837  0.6766
 2154SOL     OW 6280   2.112   1.656   4.288  0.0185  0.1584  0.0110
 2154SOL    HW1 6281   2.077   1.742   4.251 -0.1117  0.1504  0.1166
 2154SOL    HW2 6282   2.118   1.588   4.215  1.3594  0.6427 -0.3559
 2155SOL     OW 6283   3.178   1.298   3.272 -0.1760 -0.6420  0.1876
 2155SOL    HW1 6284   3.123   1.228   3.228  0.1378  0.5996 -2.3398
 2155SOL    HW2 6285   3.118   1.367   3.312 -0.5006 -0.2201 -0.9872
 2156SOL     OW 6286   2.550   3.138   3.341  0.3648 -0.3211  0.0484
 2156SOL    HW1 6287   2.561   3.080   3.422  0.0446 -0.3247  0.0933
 2156SOL    HW2 6288   2.572   3.232   3.363  1.0117 -0.4459 -0.0567
 2157SOL     OW 6289   3.486   1.436   4.160  0.2755 -0.8924 -0.7416
 2157SOL    HW1 6290   3.529   1.415   4.249  0.8324  0.1187 -0.7571
 2157SOL    HW2 6291   3.394   1.471   4.175  0.8344  0.5436 -0.4422
 2158SOL     OW 6292   1.698   0.751   4.022 -0.4870 -0.3467  0.2195
 2158SOL    HW1 6293   1.730   0.832   4.071 -0.2894 -0.5584  0.4410
 2158SOL    HW2 6294   1.724   0.759   3.926 -1.3541  0.3256  0.0242
 2159SOL     OW 6295   3.233   0.519   4.915  0.3226 -0.0008  0.6024
 2159SOL    HW1 6296   3.151   0.524   4.973  0.0867  3.5134  0.2032
 2159SOL    HW2 6297   3.213   0.463   4.834 -2.4509  2.1414 -0.3785
 2160SOL     OW 6298   3.088   1.443   4.951 -0.2790  0.1761  0.5683
 2160SOL    HW1 6299   3.131   1.532   4.935 -0.0567  0.1939  1.2342
 2160SOL    HW2 6300   3.041   1.444   5.040 -0.4608 -0.2988  0.4799
 2161SOL     OW 6301   4.150   2.935   3.734  0.1181 -0.1179  0.3817
 2161SOL    HW1 6302   4.245   2.968   3.727 -0.5155  1.6310 -0.7495
 2161SOL    HW2 6303   4.121   2.901   3.645 -0.1326 -1.2195  0.8806
 2162SOL     OW 6304   1.366   2.063   3.801 -0.2440 -0.3582 -0.1497
 2162SOL    HW1 6305   1.372   1.964   3.809  0.5924 -0.2684  0.5069
 2162SOL    HW2 6306   1.429   2.106   3.866 -1.3515  0.6179  0.3252
 2163SOL     OW 6307   2.785   1.080   2.565  0.1319  0.2850 -0.3176
 2163SOL    HW1 6308   2.825   1.054   2.653 -0.3827 -0.7303 -0.3723
 2163SOL    HW2 6309   2.834   1.035   2.491 -0.1051  0.3026 -0.4855
 2164SOL     OW 6310   1.486   0.789   0.839 -0.4386  0.4012 -0.3858
 2164SOL    HW1 6311   1.535   0.781   0.926  1.4200 -1.7325 -1.5254
 2164SOL    HW2 6312   1.526   0.863   0.785  0.9660 -0.6875 -0.8987
 2165SOL     OW 6313   3.746   1.901   4.764 -0.5719 -0.1086 -0.3221
 2165SOL    HW1 6314   3.731   1.963   4.841 -0.2236 -0.0887 -0.2674
 2165SOL    HW2 6315   3.803   1.946   4.695 -0.2246 -0.4017 -0.2313
 2166SOL     OW 6316   2.626   0.716   4.679  0.5296  0.6709  0.2955
 2166SOL    HW1 6317   2.699   0.703   4.612 -0.3805  1.2358 -0.8454
 2166SOL    HW2 6318   2.552   0.651   4.661 -0.9799  2.6357 -1.1041
 2167SOL     OW 6319   2.944   4.807   4.274  1.2495  0.2800 -0.5866
 2167SOL    HW1 6320   2.866   4.762   4.231  1.1328  0.2405 -0.3295
 2167SOL    HW2 6321   3.025   4.793   4.217  1.6844 -2.0225  0.4837
 2168SOL     OW 6322   2.377   0.134   4.858 -0.1383 -0.1235  0.2225
 2168SOL    HW1 6323   2.316   0.083   4.918  1.4369  0.6660  2.6072
 2168SOL    HW2 6324   2.466   0.090   4.854  0.1963  0.5803 -0.4524
 2169SOL     OW 6325   2.480   4.894   4.281 -0.1201  0.0910 -0.4372
 2169SOL    HW1 6326   2.482   4.807   4.329 -0.4918  0.6129  0.5403
 2169SOL    HW2 6327   2.551   4.894   4.210  3.0235  0.6628  2.4868
 2170SOL     OW 6328   3.464   0.604   0.148  0.9262 -0.3387  0.3227
 2170SOL    HW1 6329   3.413   0.518   0.157  0.0050 -0.1469 -2.1422
 2170SOL    HW2 6330   3.498   0.611   0.054  0.5266  2.2321  0.3198
 2171SOL     OW 6331   3.256   1.625   3.903  0.6518 -0.3753  0.0237
 2171SOL    HW1 6332   3.239   1.540   3.853  2.4570 -0.1718 -1.0571
 2171SOL    HW2 6333   3.354   1.631   3.926  0.3388  0.8298  1.2137
 2172SOL     OW 6334   1.390   0.926   2.602 -0.3992  0.2518  0.1892
 2172SOL    HW1 6335   1.350   0.949   2.691 -1.2497  2.2968 -0.6478
 2172SOL    HW2 6336   1.384   0.827   2.587  0.8603 -0.3132  2.8782
 2173SOL     OW 6337   3.752   0.854   0.163  0.1060 -0.2979  0.4676
 2173SOL    HW1 6338   3.713   0.839   0.072 -0.1669 -0.0817  0.5480
 2173SOL    HW2 6339   3.780   0.949   0.172 -1.0980  0.0153  1.0723
 2174SOL     OW 6340   2.688   1.121   4.406 -0.5009  0.1648 -0.7043
 2174SOL    HW1 6341   2.664   1.170   4.322  0.4054  0.6864 -0.6753
 2174SOL    HW2 6342   2.637   1.160   4.483 -0.4469  0.4730 -0.8234
 2175SOL     OW 6343   2.092   1.486   0.169  0.3439 -0.5624  0.1160
 2175SOL    HW1 6344   2.009   1.436   0.142  0.0114 -0.3905  0.7948
 2175SOL    HW2 6345   2.077   1.529   0.258  0.8809  0.1535 -0.1346
 2176SOL     OW 6346   3.496   1.975   0.303  0.1005 -0.2397 -0.2518
 2176SOL    HW1 6347   3.528   2.065   0.275 -0.2100  0.7829  2.4291
 2176SOL    HW2 6348   3.404   1.959   0.267  0.1963  0.4592 -0.8193
 2177SOL     OW 6349   3.122   0.200   4.313  0.0842  0.0295  0.3969
 2177SOL    HW1 6350   3.169   0.274   4.362 -0.0541 -0.5129  1.3807
 2177SOL    HW2 6351   3.033   0.233   4.280  0.8416  0.8619 -0.8923
 2178SOL     OW 6352   1.880   0.719   0.652  0.5063  0.2423 -0.0994
 2178SOL    HW1 6353   1.933   0.746   0.733 -0.5920  0.6268  0.5102
 2178SOL    HW2 6354   1.843   0.800   0.608  1.9180  0.1272 -1.6105
 2179SOL     OW 6355   3.185   4.853   4.478  0.2319  0.5696  0.0803
 2179SOL    HW1 6356   3.134   4.768   4.467  1.1647 -0.0051  0.0827
 2179SOL    HW2 6357   3.274   4.833   4.518  0.8113  1.4339 -0.7272
 2180SOL     OW 6358   3.500   4.751   5.018  0.5395  0.2145  0.3278
 2180SOL    HW1 6359   3.422   4.689   5.004  0.9055 -0.1607 -0.0564
 2180SOL    HW2 6360   3.470   4.830   5.073  0.1279 -0.4090  1.0131
 2181SOL     OW 6361   3.121   0.572   3.469 -0.3171  0.1183 -0.2158
 2181SOL    HW1 6362   3.219   0.558   3.477 -0.4548 -1.0807 -0.4281
 2181SOL    HW2 6363   3.073   0.508   3.530 -1.0039 -0.3842 -1.2489
 2182SOL     OW 6364   3.277   0.083   3.428 -0.6442 -0.4786 -0.2599
 2182SOL    HW1 6365   3.321  -0.005   3.446  1.2491  0.1417 -1.5423
 2182SOL    HW2 6366   3.207   0.071   3.357  0.1952 -0.8355 -1.0549
 2183SOL     OW 6367   2.689   0.733   3.041 -0.7796  0.2505 -0.4908
 2183SOL    HW1 6368   2.611   0.682   3.078 -0.5391  0.8088  0.8540
 2183SOL    HW2 6369   2.659   0.787   2.962 -1.4241 -0.5953 -0.8449
 2184SOL     OW 6370   2.746   0.387   4.541 -0.2275 -0.1445 -0.2561
 2184SOL    HW1 6371   2.652   0.410   4.515  0.0418 -1.3696 -2.5575
 2184SOL    HW2 6372   2.807   0.460   4.515 -0.2524 -0.3818 -0.9909
 2185SOL     OW 6373   2.939   1.517   4.615  0.1929  0.5069 -0.1019
 2185SOL    HW1 6374   3.017   1.572   4.645  0.4324  1.1934 -1.8357
 2185SOL    HW2 6375   2.910   1.456   4.689  2.4261  0.1458  0.5465
 2186SOL     OW 6376   3.148   4.765   2.808 -0.0527 -0.3002 -0.4020
 2186SOL    HW1 6377   3.161   4.752   2.906  0.4843  2.9597  0.0814
 2186SOL    HW2 6378   3.231   4.737   2.759 -0.1145 -1.4194  0.1094
 2187SOL     OW 6379   2.075   0.061   3.740  0.0266 -0.0102  0.5013
 2187SOL    HW1 6380   2.006   0.129   3.763 -0.5104  0.0713 -1.2240
 2187SOL    HW2 6381   2.131   0.042   3.821 -1.4996  0.4925  1.7141
 2188SOL     OW 6382   4.363   2.501   0.891  0.0555  0.3005  0.0330
 2188SOL    HW1 6383   4.429   2.501   0.816  2.0888  0.2091  1.7463
 2188SOL    HW2 6384   4.270   2.506   0.853  1.0193  1.0239 -2.4331
 2189SOL     OW 6385   2.956   1.226   4.843  0.1945 -0.1410 -0.0328
 2189SOL    HW1 6386   3.015   1.304   4.865 -2.0660  1.6805  0.0062
 2189SOL    HW2 6387   2.877   1.225   4.904 -1.4261 -0.5593 -2.0008
 2190SOL     OW 6388   2.524   1.882   4.186 -0.0430 -0.3404 -0.5110
 2190SOL    HW1 6389   2.586   1.875   4.108  0.4914  0.0697 -0.1317
 2190SOL    HW2 6390   2.439   1.926   4.158  1.4254  3.0100 -0.1827
 2191SOL     OW 6391   2.414   0.333   0.858  0.3601 -0.0685 -0.0629
 2191SOL    HW1 6392   2.394   0.410   0.798  0.6374 -0.0194 -0.0933
 2191SOL    HW2 6393   2.512   0.331   0.879  0.5763 -1.1111 -1.0469
 2192SOL     OW 6394   2.633   1.530   0.444 -0.6115 -0.4541  0.2384
 2192SOL    HW1 6395   2.633   1.629   0.440 -1.4247 -0.4786 -1.9903
 2192SOL    HW2 6396   2.719   1.497   0.484 -0.5461  1.1137  1.4697
 2193SOL     OW 6397   2.449   0.944   0.062 -0.1123 -0.1285  0.3802
 2193SOL    HW1 6398   2.520   0.910   0.124 -1.6450 -0.5974  1.9518
 2193SOL    HW2 6399   2.456   1.043   0.054  1.4226 -0.2748 -0.4377
 2194SOL     OW 6400   2.299   0.569   3.765 -0.5094 -0.2457 -0.4550
 2194SOL    HW1 6401   2.288   0.664   3.793 -0.8953 -0.1249 -0.9883
 2194SOL    HW2 6402   2.383   0.559   3.712 -0.6130 -0.1427 -0.6396
 2195SOL     OW 6403   3.537   1.903   3.030 -0.4921  0.4088 -0.2126
 2195SOL    HW1 6404   3.499   1.811   3.014 -0.6130  0.2178  1.0469
 2195SOL    HW2 6405   3.607   1.922   2.962  0.5004 -1.1826  0.3099
 2196SOL     OW 6406   3.669   1.769   0.306 -0.1215  0.7754  0.4696
 2196SOL    HW1 6407   3.639   1.689   0.254  1.6972  0.3114  0.0897
 2196SOL    HW2 6408   3.600   1.842   0.297 -1.4068 -0.4444  0.1541
 2197SOL     OW 6409   2.564   0.942   3.259  0.2066 -0.1954 -0.1228
 2197SOL    HW1 6410   2.612   0.854   3.263  0.0634 -0.2557  0.4584
 2197SOL    HW2 6411   2.466   0.926   3.245  0.2462 -0.1089 -0.4923
 2198SOL     OW 6412   2.966   1.450   0.131  0.3853  0.1525  0.4718
 2198SOL    HW1 6413   3.033   1.521   0.154 -0.0561  0.7553 -0.0872
 2198SOL    HW2 6414   2.878   1.473   0.172  0.2230 -0.0409  0.2345
 2199SOL     OW 6415   2.944   0.813   4.813 -1.0248  0.2953 -0.0219
 2199SOL    HW1 6416   3.042   0.793   4.820 -1.0713 -0.3113 -0.9948
 2199SOL    HW2 6417   2.900   0.795   4.901 -0.0355  1.9816  0.8956
 2200SOL     OW 6418   2.346   1.170   0.620 -0.0936 -0.4600 -0.2735
 2200SOL    HW1 6419   2.392   1.259   0.630  0.0956 -0.4309 -1.3265
 2200SOL    HW2 6420   2.412   1.097   0.636  0.7006 -0.4384 -3.0003
 2201SOL     OW 6421   2.808   0.409   3.309  0.3769 -0.4376  0.2462
 2201SOL    HW1 6422   2.772   0.401   3.402  1.6172  0.5637  0.8438
 2201SOL    HW2 6423   2.850   0.499   3.297 -0.0319 -0.4358 -1.3896
 2202SOL     OW 6424   1.770   0.429   3.755 -0.4024 -0.2588 -0.6952
 2202SOL    HW1 6425   1.815   0.505   3.707  0.5354 -0.8345 -0.7487
 2202SOL    HW2 6426   1.725   0.464   3.838 -0.6152  0.4676 -1.1022
 2203SOL     OW 6427   0.977   5.003   0.891  0.1738 -0.3455  0.1655
 2203SOL    HW1 6428   0.883   4.994   0.924  0.1440  0.7758  0.4292
 2203SOL    HW2 6429   1.038   5.011   0.970  0.1871  1.5758  0.0203
 2204SOL     OW 6430   2.621   0.416   4.050  0.2973 -0.1039 -0.0611
 2204SOL    HW1 6431   2.706   0.400   3.998  1.3419  0.4655  1.4033
 2204SOL    HW2 6432   2.598   0.513   4.048 -0.8417 -0.3785 -1.1870
 2205SOL     OW 6433   2.608   0.876   0.329  0.2203 -0.0119  0.2063
 2205SOL    HW1 6434   2.701   0.849   0.354  0.7674  0.8655 -0.8074
 2205SOL    HW2 6435   2.602   0.976   0.326 -0.6440 -0.0675 -0.1576
 2206SOL     OW 6436   4.065   0.414   4.039 -0.3442  0.4862 -0.3225
 2206SOL    HW1 6437   4.056   0.382   3.945 -1.3283  0.4532 -0.2271
 2206SOL    HW2 6438   3.992   0.374   4.095  1.0789 -0.6798  0.7953
 2207SOL     OW 6439   4.781   0.224   3.341 -0.4914 -0.3694 -0.4737
 2207SOL    HW1 6440   4.692   0.192   3.307 -0.2779 -1.8454  0.3019
 2207SOL    HW2 6441   4.789   0.204   3.438  0.4288  0.3785 -0.3845
 2208SOL     OW 6442   3.335   4.533   3.852 -0.0701  0.0364  0.1568
 2208SOL    HW1 6443   3.333   4.520   3.951 -1.2021 -2.0549 -0.0784
 2208SOL    HW2 6444   3.267   4.602   3.827 -1.2297 -0.8515  0.7197
 2209SOL     OW 6445   3.503   0.593   4.959  0.4977  0.4805  0.0325
 2209SOL    HW1 6446   3.404   0.585   4.945  0.6290 -1.6629  0.0287
 2209SOL    HW2 6447   3.550   0.526   4.901  1.7618 -0.4506  2.0335
 2210SOL     OW 6448   3.270   1.907   4.029 -0.2962  0.2710  0.0382
 2210SOL    HW1 6449   3.307   1.846   3.959 -1.2275  1.2450 -1.3615
 2210SOL    HW2 6450   3.221   1.982   3.985 -0.1258  1.4359  1.7309
 2211SOL     OW 6451   1.604   0.985   0.711 -0.5231  0.1345 -0.4155
 2211SOL    HW1 6452   1.658   0.970   0.629  0.0388 -0.8725  0.1134
 2211SOL    HW2 6453   1.654   1.046   0.773  1.2021 -2.6517  1.1055
 2212SOL     OW 6454   2.034   0.664   0.359  0.1007  0.3978 -0.2088
 2212SOL    HW1 6455   1.966   0.594   0.383  0.3905  0.3508  0.5317
 2212SOL    HW2 6456   2.028   0.739   0.424  1.2987  0.0105  0.3823
 2213SOL     OW 6457   2.670   0.681   0.573 -0.6378 -0.6955  0.4455
 2213SOL    HW1 6458   2.712   0.769   0.594  1.0315 -0.7044 -2.3311
 2213SOL    HW2 6459   2.572   0.693   0.556 -0.5532  0.4964  0.7437
 2214SOL     OW 6460   2.267   1.910   3.406 -0.4135 -0.3072  0.3469
 2214SOL    HW1 6461   2.195   1.960   3.455 -1.5561 -0.7487 -0.8391
 2214SOL    HW2 6462   2.229   1.871   3.322  1.1014 -0.9819 -0.0451
 2215SOL     OW 6463   1.661   2.789   3.547 -0.1387  0.4395  0.8188
 2215SOL    HW1 6464   1.567   2.754   3.543 -1.0425  2.5785  1.8755
 2215SOL    HW2 6465   1.674   2.841   3.631  1.8290  0.6926  0.4042
 2216SOL     OW 6466   2.013   1.562   0.436 -0.6301  0.0453  0.2209
 2216SOL    HW1 6467   1.930   1.603   0.473 -0.7733  0.9784 -1.0583
 2216SOL    HW2 6468   2.071   1.531   0.511 -2.7591 -2.0091  1.1418
 2217SOL     OW 6469   3.806   0.341   0.306 -0.1699  0.3590 -0.0086
 2217SOL    HW1 6470   3.757   0.428   0.298 -0.6988  0.0911  0.2709
 2217SOL    HW2 6471   3.758   0.282   0.371 -0.1282 -0.3595 -0.6249
 2218SOL     OW 6472   1.537   0.987   3.551  0.0341 -0.0333 -0.1743
 2218SOL    HW1 6473   1.564   0.893   3.571  1.5441  0.3193 -0.3873
 2218SOL    HW2 6474   1.478   1.021   3.625 -0.7421 -1.2188 -0.2346
 2219SOL     OW 6475   2.533   0.408   4.380 -0.5190  0.5009 -0.2233
 2219SOL    HW1 6476   2.459   0.459   4.336 -0.4728  0.5770 -0.2143
 2219SOL    HW2 6477   2.589   0.365   4.310 -0.3659  0.7341 -0.2476
 2220SOL     OW 6478   3.803   0.959   3.460  0.2079  0.6984  0.4481
 2220SOL    HW1 6479   3.705   0.963   3.440  0.5958  0.6099 -1.7819
 2220SOL    HW2 6480   3.855   0.983   3.377  2.0780  0.3929  1.4663
 2221SOL     OW 6481   3.078   1.192   0.109 -0.2361 -0.2198  0.1860
 2221SOL    HW1 6482   3.026   1.277   0.114  0.1370  0.0393 -0.3370
 2221SOL    HW2 6483   3.146   1.198   0.037  0.0222 -0.8393  0.3690
 2222SOL     OW 6484   2.715   2.106   0.625 -0.3061  0.6851 -0.0930
 2222SOL    HW1 6485   2.716   2.206   0.632 -2.1866  0.6631  1.1721
 2222SOL    HW2 6486   2.735   2.067   0.715 -0.2508 -0.0784 -0.4329
 2223SOL     OW 6487   3.028   4.943   4.876 -0.0209 -0.0052  0.2621
 2223SOL    HW1 6488   3.010   4.880   4.800  0.2302  1.3987 -0.9960
 2223SOL    HW2 6489   3.126   4.958   4.884 -0.0461 -0.1809  0.8993
 2224SOL     OW 6490   2.491   1.205   0.085 -0.0993 -0.0212 -0.3251
 2224SOL    HW1 6491   2.560   1.195   0.155  0.3891 -0.4962 -0.8629
 2224SOL    HW2 6492   2.404   1.232   0.127  0.6284  1.5183  0.2513
 2225SOL     OW 6493   3.339   1.170   4.286 -0.0742  0.4671  0.5351
 2225SOL    HW1 6494   3.255   1.182   4.339 -0.1227  1.7569  0.2159
 2225SOL    HW2 6495   3.373   1.260   4.257  1.3082 -0.0438  0.4815
 2226SOL     OW 6496   3.816   2.115   4.594  0.5991  0.1029  0.6924
 2226SOL    HW1 6497   3.887   2.182   4.614  0.5713  0.4882 -0.4393
 2226SOL    HW2 6498   3.743   2.158   4.541  0.0240 -0.5460  0.9446
 2227SOL     OW 6499   2.979   2.155   0.270  0.0234 -0.3019 -0.4530
 2227SOL    HW1 6500   2.989   2.131   0.366 -0.6235  1.0764 -0.0165
 2227SOL    HW2 6501   2.994   2.074   0.213 -1.0497 -1.4715  0.8730
 2228SOL     OW 6502   2.883   0.320   4.192 -0.4362  0.0976  0.4906
 2228SOL    HW1 6503   2.787   0.298   4.177 -0.5337  0.0439  1.1903
 2228SOL    HW2 6504   2.897   0.418   4.180 -0.8202  0.2993  1.6243
 2229SOL     OW 6505   0.613   0.072   3.633  0.0752  0.1649 -0.1387
 2229SOL    HW1 6506   0.636   0.145   3.569 -1.6825  2.2190  1.3889
 2229SOL    HW2 6507   0.538   0.017   3.595  1.7493 -1.2766 -1.5211
 2230SOL     OW 6508   4.387   1.284   4.716  0.0228 -0.5429 -0.0178
 2230SOL    HW1 6509   4.444   1.348   4.768  0.0739 -0.9799  0.4717
 2230SOL    HW2 6510   4.362   1.325   4.628 -0.1813  0.2596  0.4095
 2231SOL     OW 6511   1.040   3.197   3.762 -0.1308  0.5516  0.5305
 2231SOL    HW1 6512   0.980   3.275   3.746 -0.7478  0.1368  0.7682
 2231SOL    HW2 6513   1.091   3.211   3.847  3.0040  2.6608 -1.4684
 2232SOL     OW 6514   2.403   0.553   4.607  0.0601  1.0668 -0.7579
 2232SOL    HW1 6515   2.423   0.464   4.567 -0.0543  0.7020 -0.0146
 2232SOL    HW2 6516   2.336   0.601   4.550 -2.2113 -0.5538  0.3849
 2233SOL     OW 6517   3.664   1.715   0.839 -0.0528  0.1498 -0.2777
 2233SOL    HW1 6518   3.609   1.771   0.901 -2.7450 -0.8703 -1.5489
 2233SOL    HW2 6519   3.668   1.759   0.749  2.2099  0.7076  0.0449
 2234SOL     OW 6520   4.878   0.107   2.970  0.0241 -0.2618 -0.1563
 2234SOL    HW1 6521   4.932   0.078   3.049 -0.3681  1.8367  0.9432
 2234SOL    HW2 6522   4.781   0.112   2.995  0.0751  2.0624 -0.1959
 2235SOL     OW 6523   1.988   0.341   0.046  0.5143 -0.4775 -0.4075
 2235SOL    HW1 6524   1.904   0.395   0.041  0.6124 -0.3265 -0.4398
 2235SOL    HW2 6525   2.063   0.399   0.080  0.8505 -0.3221 -1.3836
 2236SOL     OW 6526   2.521   0.899   4.303 -0.1544 -0.1162 -0.3337
 2236SOL    HW1 6527   2.589   0.827   4.292  0.0285 -0.6123  3.0172
 2236SOL    HW2 6528   2.566   0.984   4.331 -0.7296  0.0710  0.0598
 2237SOL     OW 6529   2.689   0.553   1.082 -0.4209 -0.5282  0.1790
 2237SOL    HW1 6530   2.744   0.538   1.164  1.5832 -0.8564 -1.1659
 2237SOL    HW2 6531   2.698   0.475   1.021 -0.7535  0.2953 -0.9591
 2238SOL     OW 6532   3.343   0.283   4.175 -0.3376 -0.2349 -0.1780
 2238SOL    HW1 6533   3.270   0.216   4.163 -0.9952 -0.2659  2.9389
 2238SOL    HW2 6534   3.329   0.331   4.262  0.7727  3.1450 -1.7089
 2239SOL     OW 6535   3.143   2.142   3.905  0.0232  0.4300 -0.1057
 2239SOL    HW1 6536   3.187   2.187   3.827 -3.0229  0.6038 -1.9062
 2239SOL    HW2 6537   3.065   2.196   3.936 -0.9816 -1.3613  0.6915
 2240SOL     OW 6538   2.073   1.617   4.570  0.6631  0.5965 -0.2145
 2240SOL    HW1 6539   2.151   1.568   4.607 -0.5212 -1.6421 -0.4759
 2240SOL    HW2 6540   2.082   1.623   4.470  0.3591  0.0251 -0.2812
 2241SOL     OW 6541   2.664   0.849   3.774 -0.0835  0.3922  0.2553
 2241SOL    HW1 6542   2.727   0.777   3.747 -0.0772  0.6678 -0.4769
 2241SOL    HW2 6543   2.707   0.905   3.845  0.4745  0.5304 -0.1841
 2242SOL     OW 6544   2.319   1.541   4.663 -0.3668  0.2871 -0.4662
 2242SOL    HW1 6545   2.367   1.486   4.595  0.5058  0.1443  0.2509
 2242SOL    HW2 6546   2.367   1.628   4.677 -0.8693  0.5687 -0.4628
 2243SOL     OW 6547   3.428   0.661   0.520 -0.0153 -0.4780  0.3243
 2243SOL    HW1 6548   3.467   0.572   0.499 -0.2112 -0.3914 -0.4108
 2243SOL    HW2 6549   3.494   0.733   0.496 -0.3890 -0.3611 -0.3580
 2244SOL     OW 6550   2.588   1.214   4.163 -0.0845  0.3664 -0.2366
 2244SOL    HW1 6551   2.514   1.275   4.192  0.4464  0.9865 -0.1346
 2244SOL    HW2 6552   2.564   1.169   4.078 -1.8876 -1.8353  1.3302
 2245SOL     OW 6553   1.667   0.116   4.524  0.7151 -0.0646  0.1702
 2245SOL    HW1 6554   1.703   0.125   4.616  1.8266  2.2519 -0.4231
 2245SOL    HW2 6555   1.739   0.087   4.462  0.4745  0.3473 -0.3091
 2246SOL     OW 6556   1.926   4.199   0.178 -0.2452  0.0255 -0.2143
 2246SOL    HW1 6557   1.847   4.257   0.162  0.9472  1.9186  0.4188
 2246SOL    HW2 6558   1.978   4.187   0.093  0.7837  1.9438  0.0782
 2247SOL     OW 6559   3.181   0.228   3.795  0.3070  0.1609  0.1712
 2247SOL    HW1 6560   3.155   0.248   3.701 -0.8307 -0.3076  0.3661
 2247SOL    HW2 6561   3.279   0.244   3.807  0.3604  0.7504 -0.9396
 2248SOL     OW 6562   3.121   1.670   4.748 -0.1168  0.7531 -0.4744
 2248SOL    HW1 6563   3.217   1.693   4.728 -0.1971  1.4767 -0.0711
 2248SOL    HW2 6564   3.088   1.730   4.821 -0.1360 -1.1169  1.1221
 2249SOL     OW 6565   3.814   1.517   4.633  0.1847  0.1354 -0.1528
 2249SOL    HW1 6566   3.843   1.564   4.549 -0.9124  1.0201 -0.0685
 2249SOL    HW2 6567   3.841   1.571   4.712  0.2715 -0.1570  0.0177
 2250SOL     OW 6568   3.896   1.678   4.820  0.3208 -0.1055 -0.6813
 2250SOL    HW1 6569   3.993   1.702   4.830  0.3564 -0.7024  0.6914
 2250SOL    HW2 6570   3.844   1.762   4.803  1.1914  0.0788 -2.6757
 2251SOL     OW 6571   2.525   1.218   4.598 -0.5276 -0.2706 -0.1181
 2251SOL    HW1 6572   2.535   1.310   4.560  0.0087  0.0100  0.6697
 2251SOL    HW2 6573   2.510   1.224   4.697 -0.3458 -1.0347 -0.0362
 2252SOL     OW 6574   1.964   1.707   3.929 -0.2553  0.7534 -0.2102
 2252SOL    HW1 6575   1.979   1.805   3.938 -0.3326  0.8424 -0.9561
 2252SOL    HW2 6576   1.924   1.688   3.839 -1.4365  0.1748  0.4139
 2253SOL     OW 6577   4.426   0.071   3.467 -0.0913 -0.2786  0.1471
 2253SOL    HW1 6578   4.441   0.087   3.369  0.4239  2.1746  0.5737
 2253SOL    HW2 6579   4.499   0.013   3.503  1.7177  1.6051 -0.2882
 2254SOL     OW 6580   4.312   1.812   4.359  0.0152 -0.1456  0.0881
 2254SOL    HW1 6581   4.397   1.822   4.411 -0.1590 -0.1958  0.3832
 2254SOL    HW2 6582   4.292   1.715   4.347 -0.1906 -0.1324  0.3273
 2255SOL     OW 6583   2.961   1.947   3.797 -0.7768  0.2899  0.3723
 2255SOL    HW1 6584   3.017   2.017   3.840  1.3907 -0.5703 -0.8817
 2255SOL    HW2 6585   2.979   1.945   3.698 -3.8703  0.6614 -0.3214
 2256SOL     OW 6586   2.351   0.778   0.368  0.3674  0.1330 -0.2607
 2256SOL    HW1 6587   2.441   0.818   0.352  0.7775 -0.5608  0.2168
 2256SOL    HW2 6588   2.362   0.680   0.386 -0.4264  0.1548  0.3859
 2257SOL     OW 6589   1.971   2.018   3.951  0.1564  0.1250 -0.1334
 2257SOL    HW1 6590   1.888   2.031   3.897 -0.6420  1.3385  1.3292
 2257SOL    HW2 6591   2.003   2.107   3.986  1.2598 -0.5010  0.5126
 2258SOL     OW 6592   4.040   2.276   0.694 -0.3491 -0.2318 -0.3636
 2258SOL    HW1 6593   4.086   2.232   0.617  1.9218  1.0908  0.1473
 2258SOL    HW2 6594   4.002   2.364   0.664  2.0653  1.1256  0.3085
 2259SOL     OW 6595   2.588   1.459   4.507  0.0648 -0.0441  0.6763
 2259SOL    HW1 6596   2.642   1.478   4.425  0.7433 -1.6385  0.7236
 2259SOL    HW2 6597   2.640   1.487   4.588  0.5888 -0.9838  0.6850
 2260SOL     OW 6598   2.649   0.079   4.880  0.6150 -0.1578  0.5010
 2260SOL    HW1 6599   2.740   0.114   4.906  0.8266 -1.3158  1.3967
 2260SOL    HW2 6600   2.640   0.082   4.781  1.8707 -0.5775  0.3500
 2261SOL     OW 6601   3.060   5.041   0.709 -0.7926  0.1275 -0.3448
 2261SOL    HW1 6602   2.986   5.018   0.646 -1.1669  0.8393 -0.1714
 2261SOL    HW2 6603   3.094   5.133   0.689  0.5895 -0.4766 -0.9368
 2262SOL     OW 6604   4.159   2.453   4.505 -0.6421 -0.1443  0.3224
 2262SOL    HW1 6605   4.257   2.454   4.486 -0.4850  2.2096  0.8635
 2262SOL    HW2 6606   4.144   2.442   4.603 -0.9658 -1.1581  0.1669
 2263SOL     OW 6607   3.292   1.232   5.033  0.7554  0.1329  0.2486
 2263SOL    HW1 6608   3.254   1.307   4.978 -0.1786  0.6064  1.4707
 2263SOL    HW2 6609   3.391   1.228   5.022  0.5615  0.0247 -1.6560
 2264SOL     OW 6610   3.755   0.304   4.607 -0.3761 -0.6292 -0.0904
 2264SOL    HW1 6611   3.834   0.345   4.561 -0.5117 -1.6638 -1.2816
 2264SOL    HW2 6612   3.767   0.205   4.612 -1.1752 -0.6993  0.5718
 2265SOL     OW 6613   4.046   4.193   4.710  0.0973  0.6448 -0.2694
 2265SOL    HW1 6614   4.068   4.214   4.615  0.5039  1.6086  0.0287
 2265SOL    HW2 6615   4.129   4.167   4.759  0.1683  1.7679  0.2240
 2266SOL     OW 6616   1.964   1.797   4.778  0.7344 -0.4632 -0.1549
 2266SOL    HW1 6617   1.982   1.730   4.706 -0.6080 -0.4729 -0.5065
 2266SOL    HW2 6618   1.865   1.800   4.797  0.7344  1.5998 -0.3280
 2267SOL     OW 6619   2.151   5.021   4.683  0.2186 -0.1032 -0.1218
 2267SOL    HW1 6620   2.235   4.967   4.688 -0.9388 -1.9524  0.1202
 2267SOL    HW2 6621   2.121   5.045   4.775  0.8988  1.2902 -0.2372
 2268SOL     OW 6622   3.035   1.074   3.644 -0.1416 -0.1689  0.0291
 2268SOL    HW1 6623   3.055   0.980   3.616 -2.8235 -1.3600  1.7110
 2268SOL    HW2 6624   3.120   1.121   3.667  1.2370 -2.3220 -0.4184
 2269SOL     OW 6625   2.901   0.777   0.163  0.0285 -0.2991  0.0027
 2269SOL    HW1 6626   2.991   0.783   0.118 -0.3437  2.1574 -0.5394
 2269SOL    HW2 6627   2.837   0.838   0.117 -1.3746 -0.4516  1.6756
 2270SOL     OW 6628   2.487   0.666   4.025 -0.2396  0.1128  0.0977
 2270SOL    HW1 6629   2.551   0.730   3.983  0.5553 -0.5560  0.2570
 2270SOL    HW2 6630   2.404   0.715   4.053  0.6652  1.2205  0.9450
 2271SOL     OW 6631   2.010   1.928   4.225  0.3827 -0.7962  0.0660
 2271SOL    HW1 6632   1.995   1.958   4.131  0.3575  0.2523  0.3903
 2271SOL    HW2 6633   1.974   1.997   4.288  2.5200 -0.3434  0.8623
 2272SOL     OW 6634   2.258   2.957   3.877 -0.1234 -0.2474 -0.6252
 2272SOL    HW1 6635   2.252   2.965   3.976 -1.9003  2.3886 -0.8391
 2272SOL    HW2 6636   2.352   2.972   3.848  0.4126 -1.0419  0.6230
 2273SOL     OW 6637   1.205   1.958   0.365 -0.0048  0.1924 -0.8742
 2273SOL    HW1 6638   1.168   1.974   0.456  0.4757  1.8470 -0.9513
 2273SOL    HW2 6639   1.190   1.862   0.340 -0.5966 -0.1639  0.7201
 2274SOL     OW 6640   1.560   1.371   0.118 -0.4862  0.4373 -0.5281
 2274SOL    HW1 6641   1.491   1.431   0.077 -0.2767  1.9228  1.1411
 2274SOL    HW2 6642   1.522   1.280   0.133 -2.0019  1.1480  0.1013
 2275SOL     OW 6643   1.506   2.888   0.180  0.0237 -0.0222  0.1956
 2275SOL    HW1 6644   1.548   2.805   0.217 -0.1846 -0.6448 -0.9273
 2275SOL    HW2 6645   1.549   2.911   0.092 -0.0355  0.9670  0.4156
 2276SOL     OW 6646   3.013   4.540   1.069 -0.2351  0.4338 -0.8330
 2276SOL    HW1 6647   3.036   4.594   1.150 -1.3628  1.5556 -1.2250
 2276SOL    HW2 6648   2.917   4.513   1.073 -0.3800  0.7380 -1.9095
 2277SOL     OW 6649   2.773   2.342   0.184  0.8969 -0.7127 -0.3465
 2277SOL    HW1 6650   2.690   2.299   0.148  0.8613 -0.7583 -0.2131
 2277SOL    HW2 6651   2.843   2.273   0.200  0.6138 -0.8212  0.4885
 2278SOL     OW 6652   2.193   2.348   1.182  0.4492  0.9969  0.1661
 2278SOL    HW1 6653   2.098   2.360   1.153  0.5556  1.0534 -0.1621
 2278SOL    HW2 6654   2.202   2.262   1.232  0.1717  1.1198  0.4260
 2279SOL     OW 6655   2.969   2.405   0.972 -0.1810 -0.2388  0.3874
 2279SOL    HW1 6656   2.892   2.443   0.921  1.6207 -0.4346 -2.7840
 2279SOL    HW2 6657   3.023   2.479   1.012 -0.5655  0.0534  0.3714
 2280SOL     OW 6658   2.915   2.978   1.013 -0.6860 -0.6759  0.1702
 2280SOL    HW1 6659   2.851   3.037   1.063 -1.7989 -1.1970 -0.6028
 2280SOL    HW2 6660   3.007   2.994   1.047 -1.3267 -0.6127  2.0164
 2281SOL     OW 6661   2.408   2.155   0.207  0.2595 -0.2933 -0.1185
 2281SOL    HW1 6662   2.458   2.170   0.121  1.1114  1.9394  0.7134
 2281SOL    HW2 6663   2.468   2.107   0.272  0.6419  0.6009  0.1984
 2282SOL     OW 6664   2.443   3.071   1.996  0.4726  0.3950 -0.4426
 2282SOL    HW1 6665   2.350   3.106   1.982  1.2583  2.5424 -0.5352
 2282SOL    HW2 6666   2.461   2.999   1.929 -0.8743  0.4258 -0.8812
 2283SOL     OW 6667   1.784   2.037   1.486 -0.2081  0.1217  0.1495
 2283SOL    HW1 6668   1.848   2.010   1.415  0.6876 -0.6180  1.2110
 2283SOL    HW2 6669   1.831   2.096   1.552 -0.4373 -0.9021  1.2548
 2284SOL     OW 6670   5.086   2.962   0.952 -0.0599 -0.4397 -0.2177
 2284SOL    HW1 6671   5.090   3.018   1.035 -0.4288 -0.8999  0.1160
 2284SOL    HW2 6672   5.004   2.904   0.954 -0.0458 -0.4917 -0.8796
 2285SOL     OW 6673   1.545   1.592   1.457  0.1165 -0.0909 -0.1620
 2285SOL    HW1 6674   1.561   1.559   1.364 -0.0562  2.1928 -1.0679
 2285SOL    HW2 6675   1.447   1.583   1.478  0.1745 -0.7255 -0.1298
 2286SOL     OW 6676   3.828   2.963   1.270  0.7880 -0.0033 -0.2949
 2286SOL    HW1 6677   3.928   2.965   1.272  0.7748  1.1961  1.1959
 2286SOL    HW2 6678   3.793   3.047   1.230  0.3664 -0.3873 -0.7419
 2287SOL     OW 6679   0.144   2.764   1.524  0.1294 -0.2262 -0.1420
 2287SOL    HW1 6680   0.233   2.728   1.494  0.5586 -1.1698  2.0223
 2287SOL    HW2 6681   0.071   2.720   1.471  0.8025 -2.2795  0.5126
 2288SOL     OW 6682   2.182   2.474   0.792 -0.0574 -0.1697 -0.0392
 2288SOL    HW1 6683   2.084   2.457   0.793  0.0401 -0.7292  1.1731
 2288SOL    HW2 6684   2.231   2.390   0.815  0.6975  0.2191 -0.1731
 2289SOL     OW 6685   1.056   2.953   4.559 -0.3413 -0.1479 -0.4903
 2289SOL    HW1 6686   1.011   2.911   4.638 -1.9682  0.1923 -1.1781
 2289SOL    HW2 6687   1.120   2.888   4.518 -1.7659 -1.4812 -0.7081
 2290SOL     OW 6688   2.535   1.653   1.194  0.3708  0.4936  0.4218
 2290SOL    HW1 6689   2.507   1.635   1.288  1.9250 -0.3083  0.7744
 2290SOL    HW2 6690   2.611   1.592   1.170 -0.0159  0.6617 -1.3709
 2291SOL     OW 6691   2.111   4.218   1.860  0.2291 -0.7418  0.1850
 2291SOL    HW1 6692   2.026   4.181   1.825 -0.0808  0.4660 -0.4057
 2291SOL    HW2 6693   2.160   4.267   1.787  1.2889 -1.1705  0.5808
 2292SOL     OW 6694   2.235   2.835   0.248 -0.0979  0.0039 -0.3820
 2292SOL    HW1 6695   2.163   2.818   0.315  0.5299  0.6186  0.4636
 2292SOL    HW2 6696   2.221   2.924   0.206  0.6457  0.5260  0.4347
 2293SOL     OW 6697   4.111   1.870   1.597 -0.0849  0.1712 -0.1304
 2293SOL    HW1 6698   4.137   1.966   1.605 -0.0861  0.1192  0.5460
 2293SOL    HW2 6699   4.181   1.821   1.545 -0.0026  0.5045 -0.3366
 2294SOL     OW 6700   2.606   1.775   0.328 -0.3695 -0.0758  0.2944
 2294SOL    HW1 6701   2.631   1.769   0.232 -0.2903  1.7295  0.1674
 2294SOL    HW2 6702   2.512   1.741   0.341  0.2944 -2.1935 -0.0429
 2295SOL     OW 6703   3.488   2.580   0.307  0.2432  0.3093  0.1199
 2295SOL    HW1 6704   3.509   2.622   0.395  0.8902 -0.9844  0.6150
 2295SOL    HW2 6705   3.509   2.644   0.233  1.9232  0.5965  0.7953
 2296SOL     OW 6706   1.396   3.417   4.296  0.1849 -0.4140  0.1833
 2296SOL    HW1 6707   1.324   3.438   4.363 -0.8844 -0.4826 -0.9122
 2296SOL    HW2 6708   1.483   3.453   4.329 -0.6726  1.3201  0.6930
 2297SOL     OW 6709   3.806   2.247   0.095 -0.1405  0.2677 -0.0707
 2297SOL    HW1 6710   3.727   2.245   0.157  1.2826 -0.3506  1.8386
 2297SOL    HW2 6711   3.841   2.340   0.089  1.8655 -0.1277  3.1106
 2298SOL     OW 6712   3.386   2.560   0.833 -0.5519 -0.4787 -0.0883
 2298SOL    HW1 6713   3.467   2.557   0.774  0.3740 -0.9833  1.1425
 2298SOL    HW2 6714   3.305   2.575   0.778  0.4979  1.3452 -1.2546
 2299SOL     OW 6715   1.867   1.721   0.238 -0.1065 -0.0625  0.3506
 2299SOL    HW1 6716   1.920   1.772   0.169  0.5643 -1.9089 -0.5709
 2299SOL    HW2 6717   1.930   1.675   0.301 -0.7054  0.4583  1.3551
 2300SOL     OW 6718   1.630   2.953   0.749 -0.1272 -0.1907 -0.4763
 2300SOL    HW1 6719   1.653   2.970   0.845 -2.2567 -0.2258  0.0964
 2300SOL    HW2 6720   1.676   3.021   0.691 -0.2999  1.0414  0.7765
 2301SOL     OW 6721   2.103   2.524   1.497  0.4295 -0.4848  0.2671
 2301SOL    HW1 6722   2.187   2.554   1.450  0.5699  0.7171  1.2222
 2301SOL    HW2 6723   2.059   2.603   1.539  0.7212 -1.5754  2.8000
 2302SOL     OW 6724   1.279   1.230   0.894 -0.4272 -0.3475 -0.2485
 2302SOL    HW1 6725   1.234   1.163   0.952 -2.0640  0.8550 -0.0592
 2302SOL    HW2 6726   1.297   1.190   0.804  0.1022 -1.5121  0.3480
 2303SOL     OW 6727   1.691   2.717   1.137 -0.1650  0.2632 -0.3043
 2303SOL    HW1 6728   1.631   2.650   1.179 -1.0757  0.4479 -1.2517
 2303SOL    HW2 6729   1.748   2.672   1.068 -0.1580  0.3069 -0.3273
 2304SOL     OW 6730   2.394   2.794   4.766  0.5886  0.1394 -0.7301
 2304SOL    HW1 6731   2.456   2.716   4.764 -0.0661 -0.3743 -1.1262
 2304SOL    HW2 6732   2.382   2.825   4.861  0.9912 -0.1176 -0.5928
 2305SOL     OW 6733   1.320   2.483   1.481  0.0717 -0.0317 -0.5992
 2305SOL    HW1 6734   1.347   2.443   1.569  1.6510  1.1351 -0.5113
 2305SOL    HW2 6735   1.347   2.420   1.407 -2.4299 -1.6283 -0.2560
 2306SOL     OW 6736   2.602   1.995   2.137 -0.2308 -0.4764  0.3464
 2306SOL    HW1 6737   2.639   2.078   2.178 -0.2718  0.2796 -1.0948
 2306SOL    HW2 6738   2.678   1.933   2.113  0.1011  0.6266 -1.6534
 2307SOL     OW 6739   3.328   2.402   1.034 -0.4924 -0.3804 -0.2506
 2307SOL    HW1 6740   3.358   2.423   0.941  0.2238 -2.5583 -0.5615
 2307SOL    HW2 6741   3.395   2.438   1.099 -0.9404  1.0587 -0.5354
 2308SOL     OW 6742   3.700   4.040   1.288  0.0488 -0.3832 -0.2441
 2308SOL    HW1 6743   3.798   4.024   1.279  0.6470  2.6974 -0.4745
 2308SOL    HW2 6744   3.652   3.953   1.293  2.7012 -1.9971 -0.8778
 2309SOL     OW 6745   1.511   3.503   0.769  0.5182 -0.3711 -0.3820
 2309SOL    HW1 6746   1.542   3.420   0.817  0.2650 -0.1707  0.1377
 2309SOL    HW2 6747   1.519   3.581   0.830 -1.8414 -0.4458  0.1212
 2310SOL     OW 6748   2.543   2.185   1.012  0.1865  0.9614  0.8826
 2310SOL    HW1 6749   2.540   2.111   1.079  0.3466  0.8449  0.7609
 2310SOL    HW2 6750   2.519   2.271   1.057 -1.4569  0.6181  0.7164
 2311SOL     OW 6751   4.544   3.286   1.004  0.4940  0.4489  0.2400
 2311SOL    HW1 6752   4.489   3.358   1.046  0.2219  0.2633  0.2079
 2311SOL    HW2 6753   4.492   3.244   0.929  0.9988  0.8106 -0.3186
 2312SOL     OW 6754   2.489   1.641   1.473 -0.0008  0.2990  0.0489
 2312SOL    HW1 6755   2.433   1.721   1.495 -0.0754 -0.1216  1.4972
 2312SOL    HW2 6756   2.553   1.624   1.548 -0.1204 -1.1065 -0.1404
 2313SOL     OW 6757   3.740   3.090   0.872  0.2665  0.2536  0.2410
 2313SOL    HW1 6758   3.720   3.138   0.958 -0.0121 -0.5813  0.6508
 2313SOL    HW2 6759   3.663   3.103   0.809  0.4236  0.7776  0.1510
 2314SOL     OW 6760   2.219   3.179   2.245 -0.3268  0.3982  0.4685
 2314SOL    HW1 6761   2.183   3.149   2.334 -1.8353 -0.5551 -0.4119
 2314SOL    HW2 6762   2.142   3.200   2.184  0.6865  2.8330 -0.0570
 2315SOL     OW 6763   2.410   2.053   1.959  0.1396 -0.0231 -0.9972
 2315SOL    HW1 6764   2.479   2.034   2.029  0.0360 -0.4264 -1.0062
 2315SOL    HW2 6765   2.442   2.021   1.870  0.0846  0.0956 -1.0604
 2316SOL     OW 6766   1.928   2.531   3.560  0.4894 -0.6483 -0.2772
 2316SOL    HW1 6767   2.027   2.525   3.564  0.6513  1.8203  2.5873
 2316SOL    HW2 6768   1.901   2.599   3.491  0.7833 -0.8685 -0.6160
 2317SOL     OW 6769   1.457   1.698   0.423 -0.3641  0.8150 -0.2382
 2317SOL    HW1 6770   1.374   1.676   0.372  0.1708  0.4646 -0.9895
 2317SOL    HW2 6771   1.537   1.685   0.363  0.2731  0.5170  0.6549
 2318SOL     OW 6772   1.816   3.260   1.188 -0.0342  0.2055 -0.3497
 2318SOL    HW1 6773   1.731   3.207   1.189  2.1095 -3.5182 -0.3953
 2318SOL    HW2 6774   1.825   3.309   1.274 -1.0542 -1.4321  0.7515
 2319SOL     OW 6775   2.264   1.329   1.006 -0.9586 -0.3738  0.0946
 2319SOL    HW1 6776   2.218   1.414   1.032 -0.8789 -0.4747  0.5791
 2319SOL    HW2 6777   2.201   1.271   0.954 -0.6179  0.5268 -1.3936
 2320SOL     OW 6778   3.588   2.990   2.236 -0.0087  0.5661 -0.3042
 2320SOL    HW1 6779   3.496   3.031   2.233 -0.9613 -1.1577  2.1311
 2320SOL    HW2 6780   3.585   2.899   2.196  0.5654  0.3930  0.0330
 2321SOL     OW 6781   3.356   3.333   0.540 -0.3414  0.1997  0.2332
 2321SOL    HW1 6782   3.453   3.322   0.520 -0.3520 -1.8626  1.1414
 2321SOL    HW2 6783   3.344   3.367   0.633 -0.5164  0.1792  0.2191
 2322SOL     OW 6784   4.897   0.985   0.433  0.1881  0.6800 -0.2507
 2322SOL    HW1 6785   4.803   0.994   0.465  0.4472  0.6482  0.5411
 2322SOL    HW2 6786   4.900   0.998   0.334 -0.5975  1.0337 -0.2335
 2323SOL     OW 6787   1.814   3.007   0.962 -0.1157 -0.8028 -0.0440
 2323SOL    HW1 6788   1.891   2.957   0.921 -0.3314 -1.5874  0.4646
 2323SOL    HW2 6789   1.815   2.993   1.061 -0.6273 -0.4078  0.0208
 2324SOL     OW 6790   1.818   4.095   1.519  0.2797 -0.5628  0.2026
 2324SOL    HW1 6791   1.806   4.193   1.505 -1.7452 -0.6084  1.3291
 2324SOL    HW2 6792   1.842   4.077   1.614 -0.4425 -1.2317  0.2641
 2325SOL     OW 6793   3.367   2.020   1.280  0.2604 -0.5183 -0.4953
 2325SOL    HW1 6794   3.392   2.022   1.183 -0.6075 -1.9017 -0.7791
 2325SOL    HW2 6795   3.331   1.929   1.303 -0.3469  0.0585  0.9225
 2326SOL     OW 6796   2.962   1.442   1.968 -0.5363 -0.1302 -0.0669
 2326SOL    HW1 6797   3.010   1.365   2.010  2.1234  1.2487 -0.3498
 2326SOL    HW2 6798   3.027   1.516   1.950 -2.2488  0.8077 -3.1711
 2327SOL     OW 6799   2.395   2.231   4.333 -0.3686  0.5235  0.2813
 2327SOL    HW1 6800   2.423   2.300   4.266 -0.3538  1.7474  1.5046
 2327SOL    HW2 6801   2.379   2.144   4.286 -0.8299  1.4490 -1.3790
 2328SOL     OW 6802   3.917   4.042   1.736 -0.1373  0.9091  0.1425
 2328SOL    HW1 6803   3.953   3.953   1.764 -1.0350  1.1495  2.2251
 2328SOL    HW2 6804   3.954   4.065   1.645  2.5573 -0.1643  0.8502
 2329SOL     OW 6805   1.950   2.484   1.090  0.7768 -0.0785 -0.1059
 2329SOL    HW1 6806   1.896   2.519   1.014  0.6229 -1.4972 -0.6948
 2329SOL    HW2 6807   2.015   2.553   1.121 -1.4758  1.7669  0.7593
 2330SOL     OW 6808   3.584   3.812   1.331  0.1487  0.6812 -0.5547
 2330SOL    HW1 6809   3.620   3.724   1.364  1.2996  1.6790  0.9753
 2330SOL    HW2 6810   3.491   3.799   1.297 -0.2180 -0.8880  0.9098
 2331SOL     OW 6811   2.170   0.998   1.197 -0.0410  0.0659 -0.1043
 2331SOL    HW1 6812   2.112   1.034   1.125  1.4348  2.3789 -0.2609
 2331SOL    HW2 6813   2.124   1.006   1.285 -0.7365 -0.0774 -0.4523
 2332SOL     OW 6814   4.395   3.134   0.799  0.2513 -0.3175 -0.1781
 2332SOL    HW1 6815   4.308   3.101   0.836  0.9302 -1.1386  0.7625
 2332SOL    HW2 6816   4.449   3.056   0.766  0.9029  0.1067 -0.1450
 2333SOL     OW 6817   0.685   3.392   0.607  0.3464 -0.0409  0.1818
 2333SOL    HW1 6818   0.720   3.306   0.645 -0.7526 -0.4512  0.2993
 2333SOL    HW2 6819   0.762   3.454   0.590  1.0821 -0.7203  0.8924
 2334SOL     OW 6820   3.966   3.423   0.877 -0.2626 -0.2470 -0.1381
 2334SOL    HW1 6821   4.012   3.494   0.824 -1.7959 -0.0661 -1.2730
 2334SOL    HW2 6822   4.016   3.408   0.962  1.1032  0.9005 -0.6987
 2335SOL     OW 6823   1.716   4.420   2.091  0.1827 -0.3243 -0.1714
 2335SOL    HW1 6824   1.809   4.383   2.086  0.1909 -0.4210  0.6422
 2335SOL    HW2 6825   1.668   4.380   2.168 -0.4053  0.0378 -0.3432
 2336SOL     OW 6826   2.406   2.875   1.442 -0.2544  0.6976 -0.3678
 2336SOL    HW1 6827   2.323   2.930   1.447 -0.1729  0.7407  0.8491
 2336SOL    HW2 6828   2.478   2.920   1.496  0.4256  0.4416 -1.0500
 2337SOL     OW 6829   2.220   1.825   0.680 -0.0790  0.0806  0.5124
 2337SOL    HW1 6830   2.305   1.878   0.668 -0.9107  1.1802 -0.7782
 2337SOL    HW2 6831   2.237   1.730   0.656  0.7961  0.2744  0.3027
 2338SOL     OW 6832   3.502   2.923   1.653  0.0289 -0.0240  0.0128
 2338SOL    HW1 6833   3.508   2.836   1.702 -0.3048  0.0262  0.1422
 2338SOL    HW2 6834   3.461   2.992   1.712 -0.3649  0.0390 -0.3280
 2339SOL     OW 6835   2.930   1.027   2.802 -0.3579  0.5402  0.3723
 2339SOL    HW1 6836   3.009   0.966   2.789  0.4984  1.7232 -0.1720
 2339SOL    HW2 6837   2.884   1.004   2.888 -0.3980 -1.2160 -0.0682
 2340SOL     OW 6838   1.246   3.304   0.784 -0.1576 -0.3678  0.1958
 2340SOL    HW1 6839   1.322   3.240   0.772  0.0480 -0.0672 -0.1006
 2340SOL    HW2 6840   1.224   3.347   0.697  1.7334  2.2526  0.8881
 2341SOL     OW 6841   3.019   1.732   1.330  0.2744 -0.4253  0.0553
 2341SOL    HW1 6842   2.936   1.688   1.365 -0.1485  0.7000  0.5397
 2341SOL    HW2 6843   2.998   1.778   1.244  0.9785 -2.0348 -1.0231
 2342SOL     OW 6844   2.308   3.695   1.366  0.0301  0.4863  0.3145
 2342SOL    HW1 6845   2.238   3.713   1.297  0.5159  1.9590  0.1695
 2342SOL    HW2 6846   2.381   3.640   1.326  0.2748  1.2757 -0.3553
 2343SOL     OW 6847   2.685   2.514   0.906 -0.3206 -0.1304  0.1151
 2343SOL    HW1 6848   2.716   2.599   0.950 -2.2504 -0.5896  2.5848
 2343SOL    HW2 6849   2.622   2.466   0.966  0.4042 -3.2051 -1.3606
 2344SOL     OW 6850   2.030   1.883   0.066  0.4236 -0.4794  0.3107
 2344SOL    HW1 6851   2.081   1.846  -0.012  0.1544 -0.0841 -0.0532
 2344SOL    HW2 6852   2.068   1.972   0.092 -0.2371 -0.0627 -0.1262
 2345SOL     OW 6853   2.662   1.852   4.439  0.2385  0.3539  0.0623
 2345SOL    HW1 6854   2.724   1.774   4.433 -0.4717 -0.2542  0.5265
 2345SOL    HW2 6855   2.598   1.849   4.363  0.4682  0.7270 -0.1527
 2346SOL     OW 6856   1.311   1.809   0.666 -0.2067  0.1731  0.6731
 2346SOL    HW1 6857   1.378   1.856   0.722  0.2786 -0.1536  0.3768
 2346SOL    HW2 6858   1.358   1.752   0.598 -0.7777 -0.3151  0.6753
 2347SOL     OW 6859   2.821   3.294   0.417  0.2898 -0.4299 -0.0945
 2347SOL    HW1 6860   2.833   3.208   0.467  0.6373 -0.7554 -0.7358
 2347SOL    HW2 6861   2.896   3.356   0.440  0.1751 -0.3856  0.1721
 2348SOL     OW 6862   1.704   2.687   1.544 -0.0036  0.2258 -0.4320
 2348SOL    HW1 6863   1.755   2.603   1.523  1.6711  0.8745  0.7890
 2348SOL    HW2 6864   1.743   2.763   1.491  1.4626  1.0422  1.6949
 2349SOL     OW 6865   2.322   3.720   0.905  0.0808 -0.2862 -0.0885
 2349SOL    HW1 6866   2.290   3.792   0.843  1.9212  0.5477 -0.1271
 2349SOL    HW2 6867   2.414   3.741   0.936 -0.3469 -1.2871  2.0505
 2350SOL     OW 6868   1.477   3.169   1.423 -0.3920 -0.2643 -0.1247
 2350SOL    HW1 6869   1.456   3.164   1.520 -0.6039 -1.8187 -0.2249
 2350SOL    HW2 6870   1.400   3.210   1.374  0.0682  1.3235  0.4508
 2351SOL     OW 6871   3.351   3.987   4.659  0.2041 -0.7207 -0.3252
 2351SOL    HW1 6872   3.351   4.081   4.694  0.9708 -1.4439  1.8041
 2351SOL    HW2 6873   3.282   3.979   4.587 -0.3335  1.3047 -0.1217
 2352SOL     OW 6874   2.886   2.674   4.165 -0.5670  0.1921  0.0394
 2352SOL    HW1 6875   2.972   2.632   4.193 -0.3540 -0.0672 -0.9524
 2352SOL    HW2 6876   2.890   2.773   4.180  0.0388  0.2274 -0.3259
 2353SOL     OW 6877   2.469   1.930   0.711 -0.5938 -0.4065  0.9080
 2353SOL    HW1 6878   2.521   2.008   0.675 -1.4367  0.0953  0.7599
 2353SOL    HW2 6879   2.513   1.897   0.794 -1.1152  1.2605  1.8807
 2354SOL     OW 6880   1.206   1.625   0.829  0.4404  0.1874 -0.3183
 2354SOL    HW1 6881   1.285   1.601   0.884  0.1531 -1.6710 -0.6486
 2354SOL    HW2 6882   1.230   1.697   0.765  1.5253  0.4640  0.3845
 2355SOL     OW 6883   2.010   2.840   0.877 -0.2429  0.2879 -0.5786
 2355SOL    HW1 6884   2.081   2.778   0.911  0.4422  1.2277 -0.2749
 2355SOL    HW2 6885   1.998   2.825   0.778 -0.7373 -0.9557 -0.3539
 2356SOL     OW 6886   1.828   2.361   1.284  0.3196 -0.1840 -0.4276
 2356SOL    HW1 6887   1.884   2.427   1.235 -0.1668  0.3066 -0.3295
 2356SOL    HW2 6888   1.755   2.328   1.224 -0.0777  0.1690 -0.1395
 2357SOL     OW 6889   2.611   3.023   0.435 -0.2735 -0.0580 -0.5813
 2357SOL    HW1 6890   2.584   2.939   0.387 -0.0311 -2.5178  3.1822
 2357SOL    HW2 6891   2.711   3.031   0.434 -0.0979 -1.3723  1.2160
 2358SOL     OW 6892   2.023   2.759   0.631  0.4334  0.2460  0.0066
 2358SOL    HW1 6893   1.976   2.727   0.549 -0.0845  0.8121  0.0739
 2358SOL    HW2 6894   2.116   2.787   0.608 -0.2857  2.1439 -0.7744
 2359SOL     OW 6895   4.099   2.627   0.840  0.5857  0.6798  0.1454
 2359SOL    HW1 6896   4.079   2.613   0.937 -0.1960 -0.3228 -0.1392
 2359SOL    HW2 6897   4.020   2.668   0.795  0.0750 -0.8921 -0.4772
 2360SOL     OW 6898   2.198   3.939   0.470 -0.3256 -0.0666  0.0456
 2360SOL    HW1 6899   2.143   3.860   0.441 -0.7735  0.4767 -0.5993
 2360SOL    HW2 6900   2.152   4.023   0.444 -0.1639  0.4328  1.2982
 2361SOL     OW 6901   3.223   3.916   0.816  0.0382 -0.3918  0.0080
 2361SOL    HW1 6902   3.142   3.860   0.831 -0.6678  0.3455 -0.9012
 2361SOL    HW2 6903   3.294   3.862   0.771 -0.4437 -0.6795 -0.4071
 2362SOL     OW 6904   2.171   2.048   0.915 -0.2744  0.2363 -0.0957
 2362SOL    HW1 6905   2.074   2.065   0.901 -0.0763 -0.4155 -3.0144
 2362SOL    HW2 6906   2.200   1.972   0.856  2.1873  1.0344 -0.0301
 2363SOL     OW 6907   1.456   1.619   4.884  0.6286 -0.1368  0.1745
 2363SOL    HW1 6908   1.397   1.547   4.921 -1.5826  1.7263  0.5395
 2363SOL    HW2 6909   1.523   1.645   4.952  1.6518 -1.9586 -0.0571
 2364SOL     OW 6910   2.620   2.838   1.240  0.1703  0.4184 -0.4677
 2364SOL    HW1 6911   2.569   2.877   1.316 -0.1701  0.4412 -0.7011
 2364SOL    HW2 6912   2.562   2.840   1.158  0.7453  0.9625 -0.8724
 2365SOL     OW 6913   1.893   2.352   0.720 -0.2581 -0.3090 -0.6241
 2365SOL    HW1 6914   1.906   2.379   0.625 -0.9152  1.4588 -0.2540
 2365SOL    HW2 6915   1.800   2.377   0.750  0.1118 -0.3419  0.6237
 2366SOL     OW 6916   3.397   1.577   1.996  0.0852 -0.2869  0.2459
 2366SOL    HW1 6917   3.450   1.659   1.972  2.5110 -2.0029 -0.6746
 2366SOL    HW2 6918   3.418   1.552   2.091 -0.8202  0.2295  0.5968
 2367SOL     OW 6919   1.752   3.282   1.668 -0.4589  0.2460 -0.2315
 2367SOL    HW1 6920   1.747   3.319   1.575  0.2895 -0.0199 -0.3853
 2367SOL    HW2 6921   1.668   3.233   1.688 -0.3293 -0.3432 -1.0541
 2368SOL     OW 6922   3.000   1.796   1.835 -0.3097  0.0292  0.0665
 2368SOL    HW1 6923   3.055   1.861   1.783  0.3338 -1.7080 -1.5477
 2368SOL    HW2 6924   3.061   1.735   1.886 -0.8858  0.3477  1.1734
 2369SOL     OW 6925   3.118   1.581   2.310 -0.2123  0.3343 -0.4932
 2369SOL    HW1 6926   3.128   1.653   2.380 -1.7101 -1.2294  1.4446
 2369SOL    HW2 6927   3.201   1.525   2.309 -0.3082  0.1661  0.2915
 2370SOL     OW 6928   1.604   2.680   0.357  0.1605 -0.0171 -0.0702
 2370SOL    HW1 6929   1.578   2.586   0.379 -0.1768 -0.2990 -1.5345
 2370SOL    HW2 6930   1.577   2.740   0.432 -1.5260 -0.8096  0.0098
 2371SOL     OW 6931   2.234   3.865   5.055 -0.6440 -0.0619  0.0932
 2371SOL    HW1 6932   2.317   3.822   5.090 -1.9806 -1.8601  1.2198
 2371SOL    HW2 6933   2.248   3.964   5.049  2.1398 -0.4291 -1.4266
 2372SOL     OW 6934   2.342   1.705   1.015 -0.3592  0.1939 -0.4102
 2372SOL    HW1 6935   2.416   1.685   1.079 -0.3381 -0.4850 -0.6431
 2372SOL    HW2 6936   2.372   1.684   0.922 -1.2194 -1.2088 -0.3982
 2373SOL     OW 6937   2.790   1.827   2.007 -0.1368 -0.5780 -0.0472
 2373SOL    HW1 6938   2.766   1.732   2.028 -1.2420 -0.1404  0.7440
 2373SOL    HW2 6939   2.866   1.828   1.942  1.4349 -2.0187  1.6346
 2374SOL     OW 6940   1.369   3.088   1.946 -0.0163  0.9007  0.0319
 2374SOL    HW1 6941   1.369   3.144   2.030 -2.2171  1.4515 -0.2604
 2374SOL    HW2 6942   1.281   3.100   1.899  1.1322  0.5529 -2.3425
 2375SOL     OW 6943   1.570   2.352   0.166 -0.3374 -1.2897 -0.4078
 2375SOL    HW1 6944   1.542   2.263   0.131 -1.0638 -1.4084  0.4414
 2375SOL    HW2 6945   1.509   2.379   0.241 -0.4139  0.1230 -0.9512
 2376SOL     OW 6946   2.010   2.418   0.444 -0.2510 -0.3494 -0.1658
 2376SOL    HW1 6947   2.107   2.397   0.435  0.5765  2.6638  0.5222
 2376SOL    HW2 6948   1.955   2.338   0.420  2.3654 -1.9327 -1.1740
 2377SOL     OW 6949   3.853   3.345   1.377 -0.1993 -0.0914 -0.4445
 2377SOL    HW1 6950   3.943   3.307   1.398  0.4256  1.1696 -0.8101
 2377SOL    HW2 6951   3.791   3.327   1.454  1.0271  1.1320  0.8729
 2378SOL     OW 6952   3.203   3.147   0.914 -0.3533 -0.6050  0.1355
 2378SOL    HW1 6953   3.176   3.163   1.008 -0.9860  2.1668 -0.4334
 2378SOL    HW2 6954   3.239   3.232   0.874 -0.9545 -1.4379 -2.3755
 2379SOL     OW 6955   3.230   2.768   0.611  0.2982 -0.2562 -0.1905
 2379SOL    HW1 6956   3.174   2.747   0.691 -0.5671 -0.5522 -0.8614
 2379SOL    HW2 6957   3.233   2.868   0.598 -0.7720 -0.2636 -0.6181
 2380SOL     OW 6958   0.625   4.402   1.307  0.3755  0.1156 -0.0105
 2380SOL    HW1 6959   0.662   4.333   1.245  0.0161  0.8768 -1.0934
 2380SOL    HW2 6960   0.540   4.439   1.270 -0.4760 -0.2363  1.5099
 2381SOL     OW 6961   2.111   1.207   0.801  0.1679 -0.6060 -0.8658
 2381SOL    HW1 6962   2.185   1.168   0.746  0.7238  0.2046 -0.7142
 2381SOL    HW2 6963   2.052   1.262   0.743 -0.4029 -1.3501 -1.0096
 2382SOL     OW 6964   2.643   2.136   1.777 -0.5159 -0.0715 -0.5633
 2382SOL    HW1 6965   2.590   2.200   1.722 -0.8191  0.6844  0.5841
 2382SOL    HW2 6966   2.699   2.187   1.842 -0.0543 -0.9492 -0.2602
 2383SOL     OW 6967   3.447   1.682   2.892 -0.3524 -0.8373 -0.1544
 2383SOL    HW1 6968   3.409   1.592   2.916 -2.4652 -0.0094 -0.1693
 2383SOL    HW2 6969   3.424   1.704   2.797  0.1063 -0.2652 -0.1378
 2384SOL     OW 6970   2.096   2.019   1.601  0.3158 -0.2266  0.3722
 2384SOL    HW1 6971   2.083   1.936   1.655  0.6556 -0.9933 -0.6924
 2384SOL    HW2 6972   2.046   2.095   1.643  1.2222 -0.5979  2.1994
 2385SOL     OW 6973   1.880   2.884   1.241  0.7085  0.1497  0.1340
 2385SOL    HW1 6974   1.856   2.922   1.331 -1.1905 -0.3318 -0.1213
 2385SOL    HW2 6975   1.800   2.837   1.203  1.3319  0.7613 -2.0299
 2386SOL     OW 6976   3.365   4.124   1.293 -0.1967 -0.1826  0.3365
 2386SOL    HW1 6977   3.351   4.131   1.195 -1.1227 -0.3687  0.4433
 2386SOL    HW2 6978   3.395   4.031   1.316 -0.8417 -0.3968  0.3200
 2387SOL     OW 6979   1.883   1.970   1.237 -0.2510  0.1751 -0.2335
 2387SOL    HW1 6980   1.974   1.937   1.259 -0.2716 -0.2274 -0.7195
 2387SOL    HW2 6981   1.824   1.893   1.212 -0.7249  0.4288  0.0770
 2388SOL     OW 6982   1.537   1.339   0.750 -0.1268 -0.3151  0.6983
 2388SOL    HW1 6983   1.509   1.321   0.656  0.5779  2.1207 -0.0439
 2388SOL    HW2 6984   1.466   1.307   0.812 -0.7885 -1.6112 -0.6594
 2389SOL     OW 6985   2.351   4.011   1.720  0.6679 -0.6672 -0.1954
 2389SOL    HW1 6986   2.303   3.963   1.793  1.1703  0.0875  0.6493
 2389SOL    HW2 6987   2.440   4.040   1.752  0.0127  1.6736 -0.3485
 2390SOL     OW 6988   2.876   3.431   1.056  0.0005  0.1997 -0.1146
 2390SOL    HW1 6989   2.956   3.491   1.065 -0.2336  0.4015  0.7054
 2390SOL    HW2 6990   2.795   3.479   1.089 -0.0590 -0.8323  1.2902
 2391SOL     OW 6991   3.496   3.216   1.200 -0.1439 -0.4360  0.0304
 2391SOL    HW1 6992   3.456   3.259   1.281  0.1813 -0.6743  0.3180
 2391SOL    HW2 6993   3.424   3.170   1.148 -0.5675  0.7658 -0.4861
 2392SOL     OW 6994   1.720   0.939   0.483 -0.0818 -0.2186  0.0671
 2392SOL    HW1 6995   1.774   1.008   0.434  0.9418 -0.4842  0.7987
 2392SOL    HW2 6996   1.679   0.877   0.416  1.3592 -0.6191 -0.4974
 2393SOL     OW 6997   0.119   2.341   0.433  0.1888  0.3963  0.3351
 2393SOL    HW1 6998   0.171   2.421   0.464  0.6954  0.1157  0.2148
 2393SOL    HW2 6999   0.129   2.267   0.500  0.2626  0.2130  0.1238
 2394SOL     OW 7000   1.790   3.131   0.639  0.2607 -0.2282 -0.4477
 2394SOL    HW1 7001   1.873   3.176   0.673 -0.2622 -0.3876  1.1224
 2394SOL    HW2 7002   1.779   3.151   0.541  1.8948  0.1648 -0.5822
 2395SOL     OW 7003   2.061   3.300   1.031  0.2735 -0.1363 -0.0286
 2395SOL    HW1 7004   2.013   3.348   0.957 -1.2312 -0.0411  0.9714
 2395SOL    HW2 7005   1.995   3.271   1.100  1.6551 -0.2008  1.3041
 2396SOL     OW 7006   3.134   2.194   1.376  0.0478 -0.2386 -0.3007
 2396SOL    HW1 7007   3.036   2.174   1.384  0.2514 -0.8926  0.9235
 2396SOL    HW2 7008   3.181   2.114   1.338  0.2155 -0.2498 -0.0712
 2397SOL     OW 7009   1.636   2.155   0.869 -0.7798  0.4353 -0.4867
 2397SOL    HW1 7010   1.588   2.068   0.868  1.3141 -0.9122  1.9861
 2397SOL    HW2 7011   1.663   2.177   0.963  1.9352  1.8786 -1.4732
 2398SOL     OW 7012   2.661   1.782   0.942  0.1287  0.6931 -0.1939
 2398SOL    HW1 7013   2.616   1.772   1.030 -0.1202 -0.5745 -0.4533
 2398SOL    HW2 7014   2.733   1.852   0.950  1.4044 -0.7178  1.5480
 2399SOL     OW 7015   1.858   4.106   1.783  0.1473  0.4052 -0.5616
 2399SOL    HW1 7016   1.777   4.158   1.808  1.1564  2.2560 -0.8990
 2399SOL    HW2 7017   1.885   4.047   1.858 -1.4811 -0.2318 -0.4513
 2400SOL     OW 7018   0.525   2.663   0.647  0.1948 -0.0956  0.4072
 2400SOL    HW1 7019   0.427   2.677   0.629  0.0319  0.7315  1.8290
 2400SOL    HW2 7020   0.576   2.676   0.562 -0.8234  0.5256 -0.1323
 2401SOL     OW 7021   0.350   2.029   0.187  0.4668  0.1554 -0.6137
 2401SOL    HW1 7022   0.300   1.945   0.165 -0.5388  0.8956 -1.2654
 2401SOL    HW2 7023   0.290   2.108   0.170  1.7989  1.0666 -1.2337
 2402SOL     OW 7024   2.725   1.792   2.541 -0.2133 -0.3485 -0.6241
 2402SOL    HW1 7025   2.759   1.837   2.458 -0.1952 -0.4088 -0.6492
 2402SOL    HW2 7026   2.638   1.747   2.521 -0.3223 -0.1728 -0.5539
 2403SOL     OW 7027   2.883   2.083   1.666 -0.1843  0.2588 -0.0742
 2403SOL    HW1 7028   2.878   2.140   1.584 -0.2326  0.8042  0.3034
 2403SOL    HW2 7029   2.792   2.073   1.705  0.0481  1.3258  0.7990
 2404SOL     OW 7030   1.176   3.384   2.029  0.3041 -0.4028 -0.3005
 2404SOL    HW1 7031   1.211   3.384   2.123  1.1619 -0.4753 -0.6081
 2404SOL    HW2 7032   1.127   3.299   2.012 -0.1983 -0.2180  0.2039
 2405SOL     OW 7033   1.746   3.136   0.375  0.1637  0.2005 -0.1156
 2405SOL    HW1 7034   1.772   3.055   0.323  1.6087 -0.7440  1.9262
 2405SOL    HW2 7035   1.806   3.213   0.349  0.1846  0.0385 -0.5577
 2406SOL     OW 7036   1.656   1.572   1.770 -0.3389 -0.1034  0.1007
 2406SOL    HW1 7037   1.646   1.504   1.697 -2.4070  0.7566 -0.4857
 2406SOL    HW2 7038   1.632   1.662   1.735  0.1148  0.5778  1.4779
 2407SOL     OW 7039   0.938   0.791   0.749 -0.2077 -0.4165  0.5244
 2407SOL    HW1 7040   1.002   0.800   0.826  1.1865 -1.6535 -0.4184
 2407SOL    HW2 7041   0.924   0.880   0.707  0.3301  0.0048  1.2148
 2408SOL     OW 7042   1.523   2.279   0.630  0.2781  0.1333  0.1883
 2408SOL    HW1 7043   1.424   2.275   0.644  0.1781  0.3479 -0.4307
 2408SOL    HW2 7044   1.569   2.238   0.708 -0.3303 -0.9533 -0.0009
 2409SOL     OW 7045   3.745   2.589   1.522 -0.0130 -0.4008  0.1780
 2409SOL    HW1 7046   3.686   2.650   1.469  0.1867  0.8654  1.3489
 2409SOL    HW2 7047   3.756   2.503   1.473  0.4089  0.8013 -1.9644
 2410SOL     OW 7048   2.654   2.907   4.156  0.0765 -0.2509 -0.1507
 2410SOL    HW1 7049   2.619   2.814   4.140  2.2847 -1.1450 -0.1007
 2410SOL    HW2 7050   2.588   2.958   4.210 -0.4139 -2.3896  1.4103
 2411SOL     OW 7051   4.619   2.885   1.200  0.1890  0.5252 -0.0768
 2411SOL    HW1 7052   4.563   2.804   1.184  0.9505 -0.2727  1.1296
 2411SOL    HW2 7053   4.560   2.962   1.224 -0.4215 -0.5060  2.0497
 2412SOL     OW 7054   1.939   3.144   1.969  0.0061 -0.5719 -0.0595
 2412SOL    HW1 7055   1.886   3.228   1.956  1.2115  0.5471  1.6920
 2412SOL    HW2 7056   1.908   3.097   2.051  0.8497 -0.5722  0.2714
 2413SOL     OW 7057   2.256   1.409   4.913 -0.0479  0.6577  0.4143
 2413SOL    HW1 7058   2.274   1.455   4.825  0.7408 -1.0474 -0.3484
 2413SOL    HW2 7059   2.273   1.473   4.987  2.5956  1.2056 -0.5375
 2414SOL     OW 7060   1.429   2.261   1.309 -0.6228 -0.0368 -0.5064
 2414SOL    HW1 7061   1.442   2.198   1.385  1.8180  0.7657 -0.1721
 2414SOL    HW2 7062   1.436   2.211   1.222 -0.3134 -0.4878 -0.2279
 2415SOL     OW 7063   2.291   1.625   0.018 -0.3225  0.7474 -0.5976
 2415SOL    HW1 7064   2.207   1.592   0.062 -0.0982  0.3467 -0.4616
 2415SOL    HW2 7065   2.269   1.700  -0.044 -0.8521  0.3356 -0.9245
 2416SOL     OW 7066   4.853   3.577   0.614 -0.0409 -0.0100 -0.2337
 2416SOL    HW1 7067   4.776   3.612   0.560  0.2569  0.5058 -0.3357
 2416SOL    HW2 7068   4.881   3.488   0.579  0.0915  0.2786 -0.8795
 2417SOL     OW 7069   3.255   2.751   1.266 -0.5692  0.3966 -0.9257
 2417SOL    HW1 7070   3.224   2.690   1.338  1.2157  0.9230  0.3457
 2417SOL    HW2 7071   3.283   2.839   1.305  4.1568 -0.5643 -1.5363
 2418SOL     OW 7072   2.739   2.097   4.548  0.4779 -0.5311 -0.3382
 2418SOL    HW1 7073   2.710   2.015   4.499  1.9293 -0.7303 -0.9042
 2418SOL    HW2 7074   2.839   2.102   4.549  0.4246  1.1302 -0.1354
 2419SOL     OW 7075   4.141   3.354   1.098 -0.3362 -0.6364  0.3248
 2419SOL    HW1 7076   4.144   3.266   1.146 -1.5386 -1.0264 -0.2908
 2419SOL    HW2 7077   4.234   3.389   1.087  0.2839 -2.5087 -0.6428
 2420SOL     OW 7078   3.590   1.782   1.937 -0.2889  0.0557  0.4109
 2420SOL    HW1 7079   3.666   1.746   1.991  0.6622  2.7868  1.0180
 2420SOL    HW2 7080   3.616   1.785   1.841 -0.6106 -1.3209  0.2514
 2421SOL     OW 7081   1.466   3.645   1.189  0.5022  0.1594  0.6132
 2421SOL    HW1 7082   1.478   3.593   1.273 -0.5328  0.2980  0.8640
 2421SOL    HW2 7083   1.418   3.589   1.122  1.0905  0.1413  0.1987
 2422SOL     OW 7084   1.614   3.500   2.297  0.3905  0.4835 -0.4098
 2422SOL    HW1 7085   1.524   3.533   2.326  0.2693  1.4022 -1.7358
 2422SOL    HW2 7086   1.672   3.486   2.377 -1.3283 -1.4562  0.5968
 2423SOL     OW 7087   1.587   2.474   4.996  0.2309  0.6877  0.1660
 2423SOL    HW1 7088   1.505   2.527   4.973 -0.0624  0.3264  0.3640
 2423SOL    HW2 7089   1.583   2.446   5.092  0.1516 -0.0999 -0.0599
 2424SOL     OW 7090   3.145   1.661   2.022  0.0686  0.1059  0.6333
 2424SOL    HW1 7091   3.240   1.633   2.009  0.8519  2.5512  0.6479
 2424SOL    HW2 7092   3.121   1.652   2.118  0.0610 -1.0787  0.5384
 2425SOL     OW 7093   2.616   3.511   1.084 -0.3556  0.5552 -0.2825
 2425SOL    HW1 7094   2.554   3.451   1.033  2.7913 -0.6869 -2.9191
 2425SOL    HW2 7095   2.605   3.605   1.052 -1.2493  0.4677 -0.2720
 2426SOL     OW 7096   2.185   4.239   2.560  0.3698 -0.0831  0.1765
 2426SOL    HW1 7097   2.271   4.291   2.563 -0.1694  0.8153  0.6454
 2426SOL    HW2 7098   2.193   4.159   2.620  0.8859 -0.0086  0.2159
 2427SOL     OW 7099   4.523   2.735   0.425 -0.3265 -0.2399  0.4574
 2427SOL    HW1 7100   4.529   2.784   0.512  0.9993 -0.1463  0.3359
 2427SOL    HW2 7101   4.612   2.695   0.404  0.0232  1.5418 -1.8867
 2428SOL     OW 7102   1.535   2.763   1.928 -0.0624 -0.3135 -0.3937
 2428SOL    HW1 7103   1.535   2.765   1.828 -2.6493  0.0952 -0.4423
 2428SOL    HW2 7104   1.550   2.669   1.959 -1.2836 -0.8114 -1.2369
 2429SOL     OW 7105   2.595   3.387   0.305  0.6017  0.1210 -0.4918
 2429SOL    HW1 7106   2.665   3.344   0.362  0.5293 -1.8007 -1.7741
 2429SOL    HW2 7107   2.510   3.335   0.311  0.4156  0.2333 -1.8560
 2430SOL     OW 7108   4.061   1.290   0.776  0.6063 -0.2317 -0.0790
 2430SOL    HW1 7109   3.975   1.315   0.731  0.0584 -1.3951  0.2729
 2430SOL    HW2 7110   4.050   1.295   0.875  0.8444 -0.6701 -0.0271
 2431SOL     OW 7111   4.690   1.116   0.144 -0.0256 -0.0985 -0.3835
 2431SOL    HW1 7112   4.599   1.101   0.106 -0.0145 -0.7239 -0.1732
 2431SOL    HW2 7113   4.685   1.188   0.214 -0.6731 -1.1833  0.7432
 2432SOL     OW 7114   1.266   2.693   0.725 -0.2062  0.1912 -0.2420
 2432SOL    HW1 7115   1.224   2.620   0.669 -0.2538  0.8690 -1.1225
 2432SOL    HW2 7116   1.195   2.760   0.749 -0.0029  0.3694 -0.1438
 2433SOL     OW 7117   3.281   5.004   4.921  0.5488 -0.1259  0.0775
 2433SOL    HW1 7118   3.294   4.962   5.011  2.5652 -0.6013 -0.3665
 2433SOL    HW2 7119   3.285   5.103   4.930  1.4059 -0.1836  0.4486
 2434SOL     OW 7120   0.975   2.717   1.729  0.3928 -0.5751  0.4096
 2434SOL    HW1 7121   0.993   2.779   1.805  0.5363  0.8645 -0.7481
 2434SOL    HW2 7122   0.931   2.634   1.763 -0.3805  0.4187  1.9377
 2435SOL     OW 7123   2.285   2.874   0.599 -0.0949  0.0246  0.2309
 2435SOL    HW1 7124   2.378   2.909   0.602 -0.1577  0.1312  1.2221
 2435SOL    HW2 7125   2.286   2.775   0.580  0.3402 -0.3718  2.1374
 2436SOL     OW 7126   3.573   3.529   0.027 -0.0740 -0.1959 -0.1178
 2436SOL    HW1 7127   3.574   3.531  -0.073 -0.8109  1.9826 -0.1403
 2436SOL    HW2 7128   3.486   3.490   0.059  0.4497 -1.5451 -0.2952
 2437SOL     OW 7129   2.074   4.569   2.400  0.5164 -0.5306 -0.1714
 2437SOL    HW1 7130   2.099   4.478   2.367 -1.3752 -1.0929 -0.1891
 2437SOL    HW2 7131   1.975   4.579   2.397  0.6944  1.6796 -0.5083
 2438SOL     OW 7132   3.891   3.281   2.502 -0.5269 -0.2409  0.3889
 2438SOL    HW1 7133   3.840   3.286   2.587 -1.3222  0.9731 -0.1249
 2438SOL    HW2 7134   3.887   3.188   2.465  0.6796 -1.0389  2.1407
 2439SOL     OW 7135   2.263   2.600   0.549 -0.1326  0.1004 -0.2807
 2439SOL    HW1 7136   2.317   2.517   0.534 -1.4023 -0.5461 -1.6092
 2439SOL    HW2 7137   2.190   2.581   0.615 -0.3243  0.2032 -0.4615
 2440SOL     OW 7138   2.386   1.401   1.483 -0.3442 -0.0546 -0.1405
 2440SOL    HW1 7139   2.429   1.491   1.487 -0.3778 -0.0733  0.9059
 2440SOL    HW2 7140   2.404   1.351   1.568  0.2369 -1.3053 -0.9724
 2441SOL     OW 7141   3.188   2.656   5.040 -0.1322 -0.0369  0.5692
 2441SOL    HW1 7142   3.236   2.568   5.037  1.1663  0.6723 -1.2565
 2441SOL    HW2 7143   3.091   2.641   5.023 -0.2039 -1.2577  1.8752
 2442SOL     OW 7144   2.979   2.903   1.558  0.3841  0.0566 -0.1450
 2442SOL    HW1 7145   3.047   2.975   1.547  1.4419 -0.8626  0.2496
 2442SOL    HW2 7146   2.944   2.904   1.652  0.6694 -0.1819 -0.0368
 2443SOL     OW 7147   1.711   3.498   0.548  0.3587 -0.3103  0.5565
 2443SOL    HW1 7148   1.628   3.466   0.593  0.0436  0.3888  0.4893
 2443SOL    HW2 7149   1.751   3.573   0.602 -0.6811  1.3759 -0.9012
 2444SOL     OW 7150   1.238   2.892   1.766  0.3545 -0.3748  0.2641
 2444SOL    HW1 7151   1.338   2.891   1.769  0.3650 -1.7168 -0.0936
 2444SOL    HW2 7152   1.206   2.837   1.689 -0.6596  1.0042 -0.3544
 2445SOL     OW 7153   3.440   2.367   1.417  0.6511  0.0284 -0.1013
 2445SOL    HW1 7154   3.374   2.295   1.441  1.7265 -0.9141  0.1118
 2445SOL    HW2 7155   3.433   2.441   1.483  0.3900 -0.4515  0.4205
 2446SOL     OW 7156   2.245   2.689   0.950 -0.8193 -0.0728 -0.5542
 2446SOL    HW1 7157   2.234   2.598   0.910 -1.0930  0.9467 -2.9529
 2446SOL    HW2 7158   2.194   2.694   1.036 -1.3904 -1.9401 -0.7437
 2447SOL     OW 7159   0.633   0.593   0.775 -0.6319  0.1898 -0.6899
 2447SOL    HW1 7160   0.729   0.569   0.793 -0.3182  0.7384 -1.5773
 2447SOL    HW2 7161   0.628   0.650   0.693 -1.6395  0.8628 -0.1747
 2448SOL     OW 7162   3.655   4.149   0.166 -0.5740  0.1749  0.1800
 2448SOL    HW1 7163   3.615   4.240   0.175 -0.7115  0.0352  1.0819
 2448SOL    HW2 7164   3.633   4.112   0.075 -0.3581  1.1041 -0.2692
 2449SOL     OW 7165   2.311   2.632   1.369 -0.7338 -0.2668 -0.1364
 2449SOL    HW1 7166   2.322   2.729   1.390 -1.1237 -0.0272 -1.0040
 2449SOL    HW2 7167   2.386   2.602   1.309 -1.0707 -0.2944 -0.5447
 2450SOL     OW 7168   2.420   3.127   0.880  0.4450  0.3368 -0.2649
 2450SOL    HW1 7169   2.322   3.109   0.879  0.4781  0.1525 -0.2630
 2450SOL    HW2 7170   2.465   3.067   0.813  0.5359  0.5382 -0.3851
 2451SOL     OW 7171   2.504   0.989   0.759 -0.8068  0.1402 -0.2341
 2451SOL    HW1 7172   2.574   0.925   0.728  0.1852  1.4145 -0.7012
 2451SOL    HW2 7173   2.532   1.028   0.847 -1.6308 -0.3873  0.2779
 2452SOL     OW 7174   3.077   4.284   1.196 -0.0158  0.2737 -0.9830
 2452SOL    HW1 7175   3.103   4.357   1.132 -1.5705  1.1454 -0.6675
 2452SOL    HW2 7176   3.050   4.324   1.283 -0.0200 -0.7589 -0.4997
 2453SOL     OW 7177   1.461   4.504   0.864  0.6330  0.5199  0.2398
 2453SOL    HW1 7178   1.512   4.501   0.779 -0.3494  2.3796 -0.4536
 2453SOL    HW2 7179   1.523   4.490   0.941  1.7394  0.1808 -0.6916
 2454SOL     OW 7180   2.079   2.709   1.176  0.2003 -0.1326  0.3159
 2454SOL    HW1 7181   2.109   2.659   1.257  0.5104 -1.1199 -0.3934
 2454SOL    HW2 7182   2.013   2.779   1.203  1.0080  0.1977  1.5389
 2455SOL     OW 7183   2.325   2.251   0.854 -0.3716 -0.0510  0.0604
 2455SOL    HW1 7184   2.265   2.174   0.873  1.1157 -1.4695 -0.8058
 2455SOL    HW2 7185   2.409   2.242   0.909 -0.0471  0.7785 -0.2867
 2456SOL     OW 7186   1.889   2.205   1.712  0.0467  0.4130 -0.1687
 2456SOL    HW1 7187   1.861   2.158   1.795  0.9967 -0.3994 -0.2841
 2456SOL    HW2 7188   1.850   2.297   1.710 -2.2150 -0.4955 -0.1396
 2457SOL     OW 7189   3.645   1.859   1.673  0.0283 -0.3234 -0.3834
 2457SOL    HW1 7190   3.612   1.930   1.610 -0.2546  0.3118  0.4522
 2457SOL    HW2 7191   3.727   1.816   1.635  0.9713  1.3386 -0.3481
 2458SOL     OW 7192   4.836   2.057   1.161 -0.2370  0.4534  0.9758
 2458SOL    HW1 7193   4.926   2.076   1.201  0.4665  1.4243 -0.9396
 2458SOL    HW2 7194   4.771   2.128   1.191 -0.1896  0.1621  1.7853
 2459SOL     OW 7195   3.121   3.703   0.500  0.5146  0.6576  0.0842
 2459SOL    HW1 7196   3.212   3.672   0.473  0.1379 -0.3308 -0.1304
 2459SOL    HW2 7197   3.093   3.779   0.441  0.1455 -0.7639 -1.6909
 2460SOL     OW 7198   1.633   3.347   2.083  0.0629 -0.2866  0.6951
 2460SOL    HW1 7199   1.711   3.356   2.022 -0.1774 -2.2953  0.0177
 2460SOL    HW2 7200   1.645   3.408   2.162  2.9161 -1.3738  1.2251
 2461SOL     OW 7201   2.479   2.401   1.116 -0.1578 -0.3330 -0.4639
 2461SOL    HW1 7202   2.508   2.453   1.196  0.2973 -1.1289 -0.0956
 2461SOL    HW2 7203   2.379   2.396   1.113 -0.1712 -0.4099  0.1309
 2462SOL     OW 7204   2.076   2.255   3.324 -0.5273 -0.2577  0.1482
 2462SOL    HW1 7205   2.097   2.168   3.279 -2.2595 -0.3657 -0.4966
 2462SOL    HW2 7206   2.080   2.329   3.256  1.7983  0.3473  0.8575
 2463SOL     OW 7207   3.425   3.011   0.895  0.2483 -0.1772 -0.0010
 2463SOL    HW1 7208   3.421   2.925   0.945 -1.4915 -0.6297 -0.8645
 2463SOL    HW2 7209   3.332   3.049   0.886  0.6861  0.5486 -1.7506
 2464SOL     OW 7210   2.824   3.214   1.735 -0.1946  0.5031 -0.6084
 2464SOL    HW1 7211   2.865   3.245   1.650  1.4045  1.5709  0.4983
 2464SOL    HW2 7212   2.726   3.229   1.733 -0.1693  0.5627 -2.2213
 2465SOL     OW 7213   0.587   2.828   1.516  0.2061 -0.0520 -0.4379
 2465SOL    HW1 7214   0.593   2.847   1.614 -3.3398 -0.0660 -0.0944
 2465SOL    HW2 7215   0.641   2.746   1.494  0.9259 -0.1491  1.4969
 2466SOL     OW 7216   3.031   2.285   1.771 -0.3139  0.3926  0.1377
 2466SOL    HW1 7217   2.976   2.210   1.735  0.0751 -0.3279  0.9977
 2466SOL    HW2 7218   3.017   2.292   1.870 -0.4327  1.5331  0.0471
 2467SOL     OW 7219   2.967   0.168   1.404 -0.1410 -0.5448  0.1678
 2467SOL    HW1 7220   2.924   0.239   1.459 -0.5491 -0.5596 -0.1321
 2467SOL    HW2 7221   3.064   0.188   1.393 -0.0439 -0.5665  0.9341
 2468SOL     OW 7222   0.391   3.367   0.146  0.4463 -0.6404 -0.8514
 2468SOL    HW1 7223   0.313   3.304   0.153  0.4888 -0.7541 -1.3611
 2468SOL    HW2 7224   0.389   3.412   0.057  0.8800 -0.5323 -0.8065
 2469SOL     OW 7225   2.134   3.087   0.881 -0.0753 -0.4883  0.8570
 2469SOL    HW1 7226   2.087   3.004   0.910  1.9256 -1.6816  0.8677
 2469SOL    HW2 7227   2.125   3.157   0.953 -1.8710 -0.6176  0.7932
 2470SOL     OW 7228   1.970   1.422   1.282 -0.1533 -0.2580  0.3570
 2470SOL    HW1 7229   2.025   1.480   1.222 -1.7036 -0.5645 -1.4514
 2470SOL    HW2 7230   2.030   1.362   1.335  1.3292  1.0419  0.1942
 2471SOL     OW 7231   1.333   3.860   0.946 -0.4007  0.1564 -0.0803
 2471SOL    HW1 7232   1.301   3.783   1.002  0.4248  0.5551  0.9700
 2471SOL    HW2 7233   1.330   3.834   0.849 -0.6471 -0.9992  0.2159
 2472SOL     OW 7234   3.242   1.556   0.309  0.5452  0.2269 -0.0222
 2472SOL    HW1 7235   3.340   1.536   0.299  0.6261  0.6633 -0.1519
 2472SOL    HW2 7236   3.199   1.487   0.366  1.1086  0.5067  0.7648
 2473SOL     OW 7237   3.305   1.980   0.833  0.1251  0.4625 -0.1223
 2473SOL    HW1 7238   3.318   2.015   0.740 -1.7424  1.2650 -0.1199
 2473SOL    HW2 7239   3.259   2.049   0.889  1.2864  0.0227  1.4567
 2474SOL     OW 7240   2.556   3.222   1.758 -0.1765 -0.3647 -0.1103
 2474SOL    HW1 7241   2.469   3.260   1.727 -0.3219  0.6023  1.3717
 2474SOL    HW2 7242   2.545   3.185   1.850  0.7759 -1.0496 -0.2535
 2475SOL     OW 7243   3.266   3.437   2.648  0.6514  0.2242 -0.3718
 2475SOL    HW1 7244   3.342   3.395   2.598  1.0326 -0.4155  0.6853
 2475SOL    HW2 7245   3.259   3.533   2.624  1.9398  0.3486 -0.3528
 2476SOL     OW 7246   3.770   2.288   1.640  0.2826  0.2532  0.3491
 2476SOL    HW1 7247   3.786   2.300   1.542  0.5616  0.6010  0.4326
 2476SOL    HW2 7248   3.676   2.257   1.656  0.3677 -0.2154 -0.0526
 2477SOL     OW 7249   3.408   2.581   1.576  0.0709  0.1555 -0.0901
 2477SOL    HW1 7250   3.448   2.631   1.653  1.4162  1.6087 -1.6389
 2477SOL    HW2 7251   3.330   2.633   1.539 -1.1350 -0.9693  0.7830
 2478SOL     OW 7252   0.801   1.661   1.531 -0.2368  0.2052 -0.2966
 2478SOL    HW1 7253   0.791   1.669   1.432 -1.5338  1.5893 -0.0878
 2478SOL    HW2 7254   0.726   1.606   1.568 -1.1076  1.6217  0.1318
 2479SOL     OW 7255   1.181   3.127   0.173 -0.2596 -0.0120 -0.3749
 2479SOL    HW1 7256   1.218   3.180   0.096 -1.6555  0.3917 -0.8016
 2479SOL    HW2 7257   1.117   3.184   0.225  0.5098 -0.3457  0.9842
 2480SOL     OW 7258   1.978   3.315   0.143 -0.1147 -0.1991 -0.3182
 2480SOL    HW1 7259   1.945   3.391   0.087 -3.1910  0.5017  2.1469
 2480SOL    HW2 7260   1.965   3.337   0.240  3.1579 -2.1221  0.7420
 2481SOL     OW 7261   2.007   2.278   2.090 -0.1897  0.2211  0.3887
 2481SOL    HW1 7262   1.966   2.359   2.047 -0.0955 -1.2691 -2.7924
 2481SOL    HW2 7263   2.102   2.270   2.060 -0.1598 -1.0034  0.7619
 2482SOL     OW 7264   1.731   2.363   2.358 -0.3541  0.2915  0.1569
 2482SOL    HW1 7265   1.689   2.336   2.445 -0.1579 -3.5184 -0.7843
 2482SOL    HW2 7266   1.820   2.405   2.376 -0.3739 -0.3093  1.8097
 2483SOL     OW 7267   2.395   2.708   3.287 -0.0069  0.7512 -0.3436
 2483SOL    HW1 7268   2.481   2.758   3.272  0.0179  0.6381 -0.5796
 2483SOL    HW2 7269   2.416   2.614   3.314  0.0166  1.5584  2.8455
 2484SOL     OW 7270   3.484   4.084   2.371 -0.6585  0.2291  0.1623
 2484SOL    HW1 7271   3.397   4.050   2.409  0.6148 -1.8294  1.4534
 2484SOL    HW2 7272   3.546   4.007   2.358  1.3498  1.7643  0.2557
 2485SOL     OW 7273   2.414   2.919   2.966  0.2407  0.7176 -0.0887
 2485SOL    HW1 7274   2.484   2.908   3.038  0.2191 -1.1306 -0.3075
 2485SOL    HW2 7275   2.328   2.880   2.997  0.2757 -0.2589 -1.1734
 2486SOL     OW 7276   2.531   2.652   0.736 -0.1006  0.1144  0.1500
 2486SOL    HW1 7277   2.446   2.605   0.714  0.4504 -0.1349 -1.5918
 2486SOL    HW2 7278   2.577   2.604   0.811 -0.5030 -0.9717 -0.2797
 2487SOL     OW 7279   2.641   3.348   2.291  0.3195 -0.1344  0.1399
 2487SOL    HW1 7280   2.693   3.367   2.374  1.3294  0.1989 -0.5444
 2487SOL    HW2 7281   2.575   3.275   2.309  0.1812  0.2698  1.3562
 2488SOL     OW 7282   2.203   4.941   2.325  0.5960 -0.3871 -0.3473
 2488SOL    HW1 7283   2.261   4.933   2.244  0.2029 -0.3300 -0.6341
 2488SOL    HW2 7284   2.132   5.009   2.309  1.3635  0.6685  0.5575
 2489SOL     OW 7285   3.551   3.629   2.261 -0.0122 -0.6356  0.2697
 2489SOL    HW1 7286   3.578   3.543   2.303 -0.3260 -0.9151 -0.0909
 2489SOL    HW2 7287   3.573   3.705   2.322 -1.1405 -1.0858  1.2771
 2490SOL     OW 7288   3.687   3.053   4.448 -0.1686  0.0593 -0.3028
 2490SOL    HW1 7289   3.645   3.112   4.517  1.4941  1.8135 -0.7100
 2490SOL    HW2 7290   3.615   3.007   4.396 -1.5618  1.7982 -0.0301
 2491SOL     OW 7291   2.967   4.094   3.178  0.3612 -0.2028  0.0475
 2491SOL    HW1 7292   2.991   3.998   3.161  1.2024  0.0796 -0.4228
 2491SOL    HW2 7293   2.903   4.125   3.107 -0.6795 -0.6871  0.7587
 2492SOL     OW 7294   2.763   3.069   3.939  0.0979  0.1075 -0.1135
 2492SOL    HW1 7295   2.775   3.163   3.970  3.7279 -0.9179  2.1678
 2492SOL    HW2 7296   2.710   3.018   4.007 -0.6782  0.1317 -0.6813
 2493SOL     OW 7297   2.864   3.630   2.635 -0.2091 -0.2085 -0.1821
 2493SOL    HW1 7298   2.843   3.728   2.636  1.7371  0.2685 -1.6243
 2493SOL    HW2 7299   2.898   3.604   2.545 -1.0525 -2.3382  0.0532
 2494SOL     OW 7300   3.266   2.662   3.287 -0.0524 -0.2952  0.8209
 2494SOL    HW1 7301   3.288   2.565   3.276 -0.4933 -0.2856 -0.2778
 2494SOL    HW2 7302   3.210   2.693   3.210 -0.1829  0.7602  1.3146
 2495SOL     OW 7303   3.143   3.217   1.890  0.3609 -0.3504 -0.4344
 2495SOL    HW1 7304   3.088   3.298   1.910  0.1151 -0.3656 -1.0193
 2495SOL    HW2 7305   3.111   3.140   1.945  0.2650 -0.1765 -0.2463
 2496SOL     OW 7306   2.851   2.314   4.317 -0.2968  0.2666 -0.4609
 2496SOL    HW1 7307   2.797   2.398   4.318  0.4036  0.7194 -0.0433
 2496SOL    HW2 7308   2.789   2.235   4.322 -0.9383  0.7589 -0.4634
 2497SOL     OW 7309   4.296   3.369   2.375  0.0691 -0.2244  0.3075
 2497SOL    HW1 7310   4.270   3.290   2.430  0.5015  0.4109  1.4681
 2497SOL    HW2 7311   4.380   3.409   2.413 -0.4875  1.1537  0.1406
 2498SOL     OW 7312   2.351   3.452   2.620 -0.3927  0.3728  0.1259
 2498SOL    HW1 7313   2.395   3.488   2.538 -1.2198  0.1412 -0.4247
 2498SOL    HW2 7314   2.418   3.448   2.694  1.0461 -1.5924 -1.1549
 2499SOL     OW 7315   2.903   3.114   2.730  0.1453  0.6563  0.4527
 2499SOL    HW1 7316   2.804   3.124   2.720  0.2242  1.1146  0.0734
 2499SOL    HW2 7317   2.949   3.167   2.658  0.6563 -0.0810  0.2307
 2500SOL     OW 7318   2.306   4.195   2.081  0.1094  0.0042  1.0328
 2500SOL    HW1 7319   2.365   4.270   2.050 -0.7101  0.2798  0.1028
 2500SOL    HW2 7320   2.231   4.183   2.017 -1.5500  0.4458  2.8084
 2501SOL     OW 7321   2.967   1.146   3.169  0.2438 -0.0237  0.2923
 2501SOL    HW1 7322   2.882   1.177   3.211 -0.6188 -1.2403 -0.4927
 2501SOL    HW2 7323   2.966   1.047   3.158  1.2154  0.0599 -0.8956
 2502SOL     OW 7324   1.708   1.520   3.401  0.4173 -0.0192  0.5103
 2502SOL    HW1 7325   1.689   1.428   3.367 -0.9529  0.6020 -0.4868
 2502SOL    HW2 7326   1.697   1.521   3.501  0.0406 -0.8434  0.4860
 2503SOL     OW 7327   2.534   1.782   3.153  0.4650 -0.0277 -0.3262
 2503SOL    HW1 7328   2.566   1.857   3.094  0.4097 -1.0418 -1.6768
 2503SOL    HW2 7329   2.599   1.770   3.228  1.2107  0.4732 -0.8717
 2504SOL     OW 7330   1.836   2.431   1.543  0.2273 -0.4257 -0.3206
 2504SOL    HW1 7331   1.936   2.428   1.541  0.2383 -0.7647  0.4925
 2504SOL    HW2 7332   1.800   2.395   1.456  0.8110 -0.0812 -0.7095
 2505SOL     OW 7333   3.261   3.719   3.112  0.1336  0.2537  0.0411
 2505SOL    HW1 7334   3.262   3.639   3.053  1.7262 -0.9117  1.5355
 2505SOL    HW2 7335   3.187   3.781   3.084  0.0951 -0.7871 -2.3533
 2506SOL     OW 7336   1.869   2.573   4.125  0.1004  0.3317  0.0225
 2506SOL    HW1 7337   1.896   2.588   4.030 -1.7014 -2.3147 -1.0086
 2506SOL    HW2 7338   1.770   2.570   4.132  0.1345  1.6964  2.2710
 2507SOL     OW 7339   3.672   2.970   4.823  0.3010 -0.4247 -0.3581
 2507SOL    HW1 7340   3.653   2.985   4.921 -1.0654  0.4372 -0.7181
 2507SOL    HW2 7341   3.756   2.917   4.813 -0.1915 -1.6348  1.3265
 2508SOL     OW 7342   3.203   3.540   3.326 -0.0636 -0.0358 -0.0892
 2508SOL    HW1 7343   3.217   3.608   3.397 -1.4365 -0.5005  0.6515
 2508SOL    HW2 7344   3.138   3.471   3.357  0.0259 -0.7794 -1.4438
 2509SOL     OW 7345   2.921   1.864   2.737  0.0091 -0.2914 -0.3365
 2509SOL    HW1 7346   2.865   1.891   2.816 -0.0922  1.4892 -0.9692
 2509SOL    HW2 7347   2.866   1.809   2.675  0.0364 -1.5604  0.7270
 2510SOL     OW 7348   2.196   3.002   1.638  0.1615 -0.9078  0.0602
 2510SOL    HW1 7349   2.128   2.976   1.705  0.4155  0.4590  0.8855
 2510SOL    HW2 7350   2.178   3.095   1.606  2.9394  0.4717  2.1113
 2511SOL     OW 7351   3.031   2.734   3.795  0.6113  0.4780 -0.1326
 2511SOL    HW1 7352   3.079   2.730   3.707  0.4896 -0.4549 -0.1695
 2511SOL    HW2 7353   3.012   2.641   3.826 -0.1580  0.8188  0.4375
 2512SOL     OW 7354   3.337   2.513   3.947 -0.1176 -0.4317  0.2779
 2512SOL    HW1 7355   3.389   2.569   3.883  0.8785 -0.8898  0.6572
 2512SOL    HW2 7356   3.242   2.508   3.917  0.0756  0.3184 -0.5135
 2513SOL     OW 7357   3.617   1.718   4.594 -0.7946 -0.0195 -0.3549
 2513SOL    HW1 7358   3.660   1.782   4.658  0.1984 -0.1512 -0.8681
 2513SOL    HW2 7359   3.645   1.625   4.617 -0.3308 -0.0569 -1.0467
 2514SOL     OW 7360   2.625   0.690   3.381 -0.3876  0.3989  0.8651
 2514SOL    HW1 7361   2.622   0.602   3.334 -1.3547  1.2924 -0.8762
 2514SOL    HW2 7362   2.718   0.726   3.379 -0.4382  0.5162 -0.6386
 2515SOL     OW 7363   2.581   3.809   2.474 -0.4289  0.2182 -0.1205
 2515SOL    HW1 7364   2.488   3.845   2.481 -0.8610 -1.1031  1.8488
 2515SOL    HW2 7365   2.642   3.864   2.530 -0.1678  0.6264 -0.8010
 2516SOL     OW 7366   2.964   1.484   1.533  0.0689 -1.3617  0.2588
 2516SOL    HW1 7367   3.050   1.506   1.580  0.5603 -0.1157 -1.1240
 2516SOL    HW2 7368   2.906   1.428   1.592  0.4735  0.4492  2.4611
 2517SOL     OW 7369   3.992   2.099   3.611  0.1929 -0.2427  0.2658
 2517SOL    HW1 7370   4.071   2.041   3.594  0.1567  0.0595 -1.0293
 2517SOL    HW2 7371   3.908   2.049   3.588  0.1998  0.5466 -1.7177
 2518SOL     OW 7372   3.785   4.024   2.682  0.3521 -0.3528  1.2586
 2518SOL    HW1 7373   3.754   4.062   2.769  1.6316  0.7397  1.2720
 2518SOL    HW2 7374   3.848   4.089   2.638 -0.2620 -0.8810 -0.4814
 2519SOL     OW 7375   3.831   3.489   1.808 -0.3266  0.1508 -0.0506
 2519SOL    HW1 7376   3.771   3.530   1.877  0.0560  1.2155 -0.3321
 2519SOL    HW2 7377   3.893   3.424   1.852 -1.7283 -1.0357  0.2278
 2520SOL     OW 7378   2.919   2.622   4.974 -0.3240  0.0072 -0.1440
 2520SOL    HW1 7379   2.911   2.722   4.975 -0.7147 -0.0169 -0.3464
 2520SOL    HW2 7380   2.850   2.582   5.035 -1.4898 -0.1963 -1.5260
 2521SOL     OW 7381   2.193   3.346   4.685 -0.2771  0.1954  0.0080
 2521SOL    HW1 7382   2.232   3.437   4.698  2.9713 -0.4807 -3.3228
 2521SOL    HW2 7383   2.249   3.279   4.732  0.4992 -0.4731 -1.7739
 2522SOL     OW 7384   2.645   4.114   2.058  0.4046 -0.2516 -0.1552
 2522SOL    HW1 7385   2.680   4.180   2.125 -0.1512 -0.4837  0.3706
 2522SOL    HW2 7386   2.648   4.022   2.097 -1.8558 -0.1569  0.3740
 2523SOL     OW 7387   1.429   0.710   4.068 -0.0566  0.1578  0.7239
 2523SOL    HW1 7388   1.410   0.614   4.047  1.2962 -0.5269  2.3987
 2523SOL    HW2 7389   1.521   0.733   4.039 -0.0025  0.6471  1.2652
 2524SOL     OW 7390   3.164   3.128   1.560 -0.3373  0.4891  0.5801
 2524SOL    HW1 7391   3.158   3.190   1.638  2.4408  2.4464 -0.5848
 2524SOL    HW2 7392   3.230   3.164   1.494  0.1378 -2.9252 -1.0115
 2525SOL     OW 7393   2.666   3.749   3.057  0.2231 -0.2531 -0.4105
 2525SOL    HW1 7394   2.626   3.729   3.146 -0.8425 -0.9168 -1.0159
 2525SOL    HW2 7395   2.727   3.673   3.030  1.4097  0.4527  0.2193
 2526SOL     OW 7396   2.017   1.033   2.075  0.0089 -0.5184  0.0567
 2526SOL    HW1 7397   2.047   0.998   1.986 -0.7374  0.0949 -0.4459
 2526SOL    HW2 7398   2.010   1.133   2.071 -0.7721 -0.5436  0.5541
 2527SOL     OW 7399   1.937   3.946   1.984  0.5027 -0.6441 -0.3501
 2527SOL    HW1 7400   1.904   3.853   2.000  2.2213 -0.9252  2.1936
 2527SOL    HW2 7401   2.023   3.960   2.033  1.4926  1.6312 -2.4938
 2528SOL     OW 7402   3.248   4.620   2.404  0.3959 -0.1080 -0.4094
 2528SOL    HW1 7403   3.219   4.660   2.317 -0.4455  1.0797  0.3959
 2528SOL    HW2 7404   3.320   4.552   2.386 -0.2238 -0.3869 -2.0826
 2529SOL     OW 7405   3.141   2.528   4.196  0.6439  0.2602 -0.3820
 2529SOL    HW1 7406   3.140   2.444   4.250  0.8304  0.8019  0.4958
 2529SOL    HW2 7407   3.235   2.552   4.173  0.4897 -0.7280 -2.2141
 2530SOL     OW 7408   3.338   1.629   2.650  0.1314  0.5766  0.7816
 2530SOL    HW1 7409   3.403   1.576   2.596 -2.3907 -1.4433 -0.4858
 2530SOL    HW2 7410   3.300   1.702   2.594 -0.6676  0.0323  0.6010
 2531SOL     OW 7411   1.565   2.105   3.991  0.7388 -0.4748  0.0144
 2531SOL    HW1 7412   1.559   2.022   4.046 -0.9744 -0.2771  0.1673
 2531SOL    HW2 7413   1.532   2.183   4.044  0.1990 -0.0839 -0.8730
 2532SOL     OW 7414   2.487   3.117   2.248 -0.4242 -0.7914  0.2365
 2532SOL    HW1 7415   2.394   3.150   2.269 -0.1263  0.2335  0.0091
 2532SOL    HW2 7416   2.490   3.085   2.154 -0.2471  0.3678 -0.1684
 2533SOL     OW 7417   3.384   2.023   3.454  0.1155  0.1550  0.0414
 2533SOL    HW1 7418   3.446   1.957   3.411  0.9539  1.1750 -0.3555
 2533SOL    HW2 7419   3.437   2.099   3.492 -0.8980  1.3257 -0.7927
 2534SOL     OW 7420   3.419   2.732   2.935 -0.0665 -0.3705  0.8750
 2534SOL    HW1 7421   3.385   2.640   2.920 -0.1834 -0.1273 -0.4096
 2534SOL    HW2 7422   3.506   2.744   2.887 -0.3483  0.3653  0.5342
 2535SOL     OW 7423   3.735   2.364   3.004  1.1738  0.2909  0.2524
 2535SOL    HW1 7424   3.795   2.435   2.969 -1.0987  2.0544 -0.2990
 2535SOL    HW2 7425   3.700   2.391   3.093 -0.4479  0.3828 -0.3749
 2536SOL     OW 7426   2.225   1.973   2.485 -0.5930 -0.0287 -0.1801
 2536SOL    HW1 7427   2.181   1.883   2.487  0.8563 -0.7813  0.0672
 2536SOL    HW2 7428   2.249   1.997   2.391 -1.0790  0.1433 -0.2582
 2537SOL     OW 7429   3.926   3.732   1.683  0.8422  0.4325 -0.1419
 2537SOL    HW1 7430   3.939   3.728   1.583 -0.0046  2.0535 -0.3435
 2537SOL    HW2 7431   3.867   3.656   1.712 -1.5356  1.7005 -1.3686
 2538SOL     OW 7432   0.524   1.906   0.557 -0.4788  0.0715  0.7571
 2538SOL    HW1 7433   0.589   1.863   0.494 -0.5356 -0.0804  0.8005
 2538SOL    HW2 7434   0.562   1.992   0.591 -0.4752  0.1877  0.4650
 2539SOL     OW 7435   2.630   3.131   2.695 -0.0213  0.1905  0.1552
 2539SOL    HW1 7436   2.538   3.096   2.680 -0.2531  0.4102  1.0626
 2539SOL    HW2 7437   2.634   3.228   2.669  0.5844 -0.3980 -2.2175
 2540SOL     OW 7438   3.307   4.686   3.397  0.2657  0.4871 -0.7681
 2540SOL    HW1 7439   3.329   4.589   3.386 -1.1815 -0.0707  0.7722
 2540SOL    HW2 7440   3.211   4.701   3.374  0.0613  1.2528  0.5003
 2541SOL     OW 7441   2.396   2.965   2.692  0.4514  0.0776  0.2645
 2541SOL    HW1 7442   2.415   2.955   2.790 -0.6477 -1.2496  0.3581
 2541SOL    HW2 7443   2.342   2.888   2.660  1.4870  0.0636 -1.5934
 2542SOL     OW 7444   3.611   3.830   2.422  0.1087  0.1428 -0.5752
 2542SOL    HW1 7445   3.704   3.863   2.410 -0.3464  1.7921  0.1528
 2542SOL    HW2 7446   3.585   3.836   2.518 -1.3729  1.5197 -1.0212
 2543SOL     OW 7447   2.533   2.646   1.631  0.0289 -0.2253 -0.2139
 2543SOL    HW1 7448   2.466   2.600   1.689 -0.3671  1.2812  0.5586
 2543SOL    HW2 7449   2.497   2.654   1.539 -0.6021  0.0461  0.0522
 2544SOL     OW 7450   1.104   3.102   3.272  0.3746  0.4645 -0.3938
 2544SOL    HW1 7451   1.020   3.053   3.297  0.1550  1.2619  0.4685
 2544SOL    HW2 7452   1.115   3.182   3.330  0.5555  1.6565 -1.9936
 2545SOL     OW 7453   3.152   2.069   2.566 -0.0371  0.2860  0.3409
 2545SOL    HW1 7454   3.108   2.029   2.646 -0.1580  1.4523  0.8765
 2545SOL    HW2 7455   3.231   2.123   2.595 -0.3629  1.1103 -0.2679
 2546SOL     OW 7456   3.966   3.736   2.361 -0.4243 -0.3672  0.1004
 2546SOL    HW1 7457   3.984   3.640   2.380 -0.5111 -0.1456  1.4241
 2546SOL    HW2 7458   4.011   3.793   2.430  0.6284  0.6265 -1.3453
 2547SOL     OW 7459   3.645   2.479   2.717  0.3949  0.4398 -0.3361
 2547SOL    HW1 7460   3.652   2.577   2.738  0.5362  0.4090 -0.2299
 2547SOL    HW2 7461   3.639   2.428   2.803 -2.0272  0.5055 -0.4247
 2548SOL     OW 7462   2.115   3.519   2.441  0.0312 -0.2422 -0.2228
 2548SOL    HW1 7463   2.052   3.445   2.419 -1.1030  1.5582 -3.6427
 2548SOL    HW2 7464   2.195   3.481   2.488 -1.4718 -3.2491  0.1676
 2549SOL     OW 7465   3.024   3.050   2.085 -0.5595 -0.7633  0.0105
 2549SOL    HW1 7466   3.093   2.988   2.048 -1.2220 -2.7463  1.9109
 2549SOL    HW2 7467   2.950   2.997   2.126 -2.4762  1.3021 -0.5683
 2550SOL     OW 7468   3.213   1.826   2.458 -0.6079  0.0370  0.0918
 2550SOL    HW1 7469   3.217   1.917   2.499 -0.9997  0.1281 -0.0630
 2550SOL    HW2 7470   3.291   1.813   2.397 -0.9103  0.5306 -0.4098
 2551SOL     OW 7471   3.492   3.398   4.084  0.0382  0.2262 -0.2216
 2551SOL    HW1 7472   3.528   3.447   4.162 -1.2811  1.1989 -0.1992
 2551SOL    HW2 7473   3.567   3.369   4.025  0.9219  1.0211  0.4981
 2552SOL     OW 7474   2.714   3.317   3.443 -0.2161  0.3796 -0.1661
 2552SOL    HW1 7475   2.728   3.365   3.357  0.2136  2.0358  0.7728
 2552SOL    HW2 7476   2.772   3.235   3.446 -0.0738  0.4281 -1.3372
 2553SOL     OW 7477   3.613   3.807   2.706 -0.0347  0.4409 -0.3912
 2553SOL    HW1 7478   3.706   3.837   2.686 -0.0716  0.4731 -0.5113
 2553SOL    HW2 7479   3.563   3.881   2.752 -1.5573  2.3259 -4.6115
 2554SOL     OW 7480   3.029   3.281   2.539 -1.1153  0.1690  0.2713
 2554SOL    HW1 7481   3.030   3.258   2.441  0.5164  3.1822 -0.5408
 2554SOL    HW2 7482   3.109   3.337   2.561 -1.8737  0.2536  3.1937
 2555SOL     OW 7483   3.513   3.152   3.758  0.2433  0.1290  0.5420
 2555SOL    HW1 7484   3.431   3.096   3.771  0.7725 -0.9904 -0.7505
 2555SOL    HW2 7485   3.487   3.238   3.713 -0.0206 -1.1015 -1.8158
 2556SOL     OW 7486   2.318   0.840   2.733 -0.1086 -0.1453  0.2934
 2556SOL    HW1 7487   2.369   0.861   2.650  0.4524  0.5882  0.8079
 2556SOL    HW2 7488   2.365   0.880   2.812 -0.6005 -0.8681  0.9762
 2557SOL     OW 7489   2.186   2.370   4.487 -0.2351 -0.0432 -0.2463
 2557SOL    HW1 7490   2.234   2.443   4.535  1.4024 -0.9271 -0.4649
 2557SOL    HW2 7491   2.253   2.311   4.441 -1.5335 -1.4719 -0.3681
 2558SOL     OW 7492   2.995   3.473   2.137  0.4065  0.0593 -0.1787
 2558SOL    HW1 7493   3.024   3.545   2.075 -0.3796  0.0598 -0.5571
 2558SOL    HW2 7494   2.915   3.426   2.099 -1.0559  1.0525  1.5084
 2559SOL     OW 7495   1.309   1.806   3.768  0.3804  0.4026 -0.1994
 2559SOL    HW1 7496   1.212   1.826   3.755  0.3869  0.6780  0.1900
 2559SOL    HW2 7497   1.336   1.735   3.703 -0.3895 -0.6087  0.5474
 2560SOL     OW 7498   3.255   2.528   2.904 -0.2389 -0.2456 -0.3557
 2560SOL    HW1 7499   3.209   2.524   2.815  0.1975  1.8029 -0.7203
 2560SOL    HW2 7500   3.267   2.435   2.939 -2.2879 -0.9990 -1.4474
 2561SOL     OW 7501   2.563   3.477   2.838  0.1892 -0.3265  0.7435
 2561SOL    HW1 7502   2.503   3.557   2.848 -0.4752 -0.5513 -1.1298
 2561SOL    HW2 7503   2.651   3.496   2.882  0.6983  2.1468 -1.1399
 2562SOL     OW 7504   2.559   3.749   1.967 -0.2440 -0.3592  0.3141
 2562SOL    HW1 7505   2.464   3.770   1.944 -0.5133 -1.0316  0.7861
 2562SOL    HW2 7506   2.568   3.651   1.989  0.8955 -0.7212 -1.4969
 2563SOL     OW 7507   3.226   3.747   4.049  0.0365 -0.0165  0.2441
 2563SOL    HW1 7508   3.194   3.686   4.121 -1.4322  0.5374  0.0979
 2563SOL    HW2 7509   3.321   3.726   4.026 -0.3049 -1.9432  0.4908
 2564SOL     OW 7510   2.261   3.120   3.638  0.0990  0.0877 -0.2331
 2564SOL    HW1 7511   2.231   3.042   3.693 -0.5995  0.1572 -0.5069
 2564SOL    HW2 7512   2.193   3.139   3.568 -0.8633  2.3290  1.1827
 2565SOL     OW 7513   2.663   3.927   3.421  0.6676 -0.0923 -0.1655
 2565SOL    HW1 7514   2.651   3.999   3.352 -1.8579  0.6850  0.9318
 2565SOL    HW2 7515   2.644   3.838   3.380  1.2879  0.1220 -0.9423
 2566SOL     OW 7516   2.604   2.920   3.170 -0.3369  0.1430  0.2414
 2566SOL    HW1 7517   2.699   2.939   3.143 -0.1987  0.7857  1.1400
 2566SOL    HW2 7518   2.564   3.002   3.211 -1.9393  0.4791 -1.8695
 2567SOL     OW 7519   3.543   1.203   4.027  0.2664 -0.1863 -0.1515
 2567SOL    HW1 7520   3.588   1.198   3.937  0.0203 -2.0500 -0.2139
 2567SOL    HW2 7521   3.545   1.298   4.060 -0.0423  0.6375 -2.3152
 2568SOL     OW 7522   1.649   2.108   4.462  0.0117 -0.2580 -0.1036
 2568SOL    HW1 7523   1.661   2.011   4.484 -1.3978 -0.7742 -1.4350
 2568SOL    HW2 7524   1.581   2.118   4.389 -0.9804  1.8238  0.9955
 2569SOL     OW 7525   2.206   2.428   3.545  0.0150 -0.0101 -0.0906
 2569SOL    HW1 7526   2.299   2.439   3.510  0.3233  0.8801  0.9505
 2569SOL    HW2 7527   2.168   2.341   3.514  1.0234 -0.1679 -0.9097
 2570SOL     OW 7528   3.561   2.220   2.852  0.3878  0.3966  0.2765
 2570SOL    HW1 7529   3.636   2.263   2.903  0.6775  1.4526 -1.0016
 2570SOL    HW2 7530   3.591   2.132   2.817 -0.1105 -0.8193  2.6584
 2571SOL     OW 7531   2.763   1.854   2.962  0.0978  0.8139 -0.4254
 2571SOL    HW1 7532   2.697   1.921   2.997 -0.1515  0.7285 -0.7270
 2571SOL    HW2 7533   2.854   1.875   2.999 -0.2269  0.4586  0.6206
 2572SOL     OW 7534   1.807   3.203   3.137  0.0123 -0.1818  0.1566
 2572SOL    HW1 7535   1.731   3.242   3.085  0.0185  0.3271  0.5215
 2572SOL    HW2 7536   1.811   3.246   3.227  1.6560  0.9078 -0.3939
 2573SOL     OW 7537   2.817   3.928   4.046  0.2121 -0.7654 -0.0367
 2573SOL    HW1 7538   2.901   3.982   4.044 -0.6462  0.6615  0.4864
 2573SOL    HW2 7539   2.796   3.902   4.140 -0.6511  0.1077  0.0279
 2574SOL     OW 7540   0.890   1.984   0.761 -0.2334  0.1964 -0.3390
 2574SOL    HW1 7541   0.800   1.946   0.781 -0.1866  0.3016  0.0793
 2574SOL    HW2 7542   0.942   1.994   0.846  0.0548  0.4341 -0.5396
 2575SOL     OW 7543   3.258   4.342   0.001  0.2414  0.6484 -0.1739
 2575SOL    HW1 7544   3.208   4.376  -0.079 -0.6959 -1.1751 -0.4102
 2575SOL    HW2 7545   3.199   4.347   0.082  0.6570  1.0405  0.1157
 2576SOL     OW 7546   3.876   3.582   0.435  0.4570  0.1817  0.2921
 2576SOL    HW1 7547   3.957   3.637   0.412  1.0346 -0.5694  0.4824
 2576SOL    HW2 7548   3.878   3.496   0.384 -0.9853  0.7681 -0.8024
 2577SOL     OW 7549   2.761   3.387   2.518  0.6623  0.2904 -0.2843
 2577SOL    HW1 7550   2.841   3.328   2.529  0.0546 -0.0816  3.3588
 2577SOL    HW2 7551   2.773   3.470   2.572 -1.8645 -0.3953  1.5345
 2578SOL     OW 7552   3.456   2.092   2.239  0.0488 -0.2137  0.0548
 2578SOL    HW1 7553   3.359   2.107   2.222  0.1400  2.1846  1.2905
 2578SOL    HW2 7554   3.469   2.056   2.331  0.3832  1.3625  0.6624
 2579SOL     OW 7555   2.908   2.995   1.314 -0.1351  0.2707 -0.3355
 2579SOL    HW1 7556   2.833   2.950   1.264  0.6761  0.1262 -1.4674
 2579SOL    HW2 7557   2.918   2.952   1.404 -0.4072 -0.7618 -0.7786
 2580SOL     OW 7558   2.309   3.633   1.646  0.6018  0.4465  0.4872
 2580SOL    HW1 7559   2.290   3.647   1.549  0.6611  1.0185  0.5573
 2580SOL    HW2 7560   2.387   3.689   1.674  0.7001  0.1467  0.8244
 2581SOL     OW 7561   3.728   1.009   4.100 -0.1692 -0.6691 -0.1583
 2581SOL    HW1 7562   3.748   0.969   4.190  2.3650  1.7671  0.5038
 2581SOL    HW2 7563   3.646   1.066   4.106 -0.3749 -1.0194  0.4214
 2582SOL     OW 7564   3.315   1.848   3.654  0.1827  0.4550  0.4679
 2582SOL    HW1 7565   3.325   1.925   3.590 -0.1570  0.0523 -0.0752
 2582SOL    HW2 7566   3.393   1.847   3.717  0.5342  0.8462  0.0496
 2583SOL     OW 7567   1.743   3.731   2.183  0.0645  0.4100 -0.9275
 2583SOL    HW1 7568   1.679   3.806   2.168 -0.8680 -0.2814 -0.5504
 2583SOL    HW2 7569   1.695   3.656   2.229  1.5068  0.4157  0.6450
 2584SOL     OW 7570   1.879   3.359   2.621 -0.3423  0.3029 -0.2576
 2584SOL    HW1 7571   1.895   3.456   2.643 -1.3109  0.2508  0.7634
 2584SOL    HW2 7572   1.950   3.304   2.664 -0.2582  0.4941 -0.1472
 2585SOL     OW 7573   2.999   2.281   3.556  0.1807 -0.6743 -0.6429
 2585SOL    HW1 7574   3.019   2.197   3.507  2.8651  0.6582 -2.0456
 2585SOL    HW2 7575   2.949   2.344   3.495 -3.7067 -1.8349  1.0277
 2586SOL     OW 7576   4.395   3.391   3.153  0.4356 -0.3810  0.1427
 2586SOL    HW1 7577   4.402   3.429   3.245  1.3217 -2.2031  0.8629
 2586SOL    HW2 7578   4.318   3.327   3.149  1.4200 -1.5923  0.1231
 2587SOL     OW 7579   3.578   2.495   4.406  0.7861 -0.0832  0.6862
 2587SOL    HW1 7580   3.479   2.483   4.409  0.7826 -0.1638  0.2951
 2587SOL    HW2 7581   3.601   2.566   4.339  1.0050 -0.1844  0.6531
 2588SOL     OW 7582   3.128   2.718   3.055 -0.2911  0.0083  0.6175
 2588SOL    HW1 7583   3.178   2.659   2.992 -0.4342 -0.9187  1.3457
 2588SOL    HW2 7584   3.098   2.801   3.007  0.3474 -0.2705 -0.2907
 2589SOL     OW 7585   2.977   2.517   1.620 -0.0930 -0.5243  0.0197
 2589SOL    HW1 7586   2.923   2.587   1.667  0.1821  0.8548 -1.6077
 2589SOL    HW2 7587   2.996   2.441   1.682 -2.6047 -0.3665  1.0828
 2590SOL     OW 7588   3.162   3.105   3.804  0.3158  0.3149 -0.3503
 2590SOL    HW1 7589   3.083   3.164   3.791 -1.8705 -1.9643  1.5503
 2590SOL    HW2 7590   3.217   3.138   3.880 -0.2899  0.4904  0.0125
 2591SOL     OW 7591   1.988   4.416   2.105 -0.0675 -0.4080 -0.0266
 2591SOL    HW1 7592   2.044   4.368   2.038  1.2555  0.6144  0.3055
 2591SOL    HW2 7593   2.007   4.379   2.196 -1.8944 -1.8281 -0.1615
 2592SOL     OW 7594   3.293   0.185   4.925 -0.0339 -0.1417 -0.8407
 2592SOL    HW1 7595   3.258   0.268   4.970 -0.5859 -0.5711 -0.4555
 2592SOL    HW2 7596   3.347   0.211   4.845  2.1213  0.7261  0.7745
 2593SOL     OW 7597   2.789   2.281   1.964 -0.3436  0.0917 -0.0379
 2593SOL    HW1 7598   2.745   2.370   1.957 -0.5473 -0.0607 -0.7858
 2593SOL    HW2 7599   2.789   2.251   2.060 -0.3550  0.8457  0.2044
 2594SOL     OW 7600   2.177   2.837   3.165  0.3161  0.4287 -0.1483
 2594SOL    HW1 7601   2.258   2.790   3.203  1.4671  0.9757 -1.8394
 2594SOL    HW2 7602   2.164   2.923   3.214  0.2155 -0.0514  0.7082
 2595SOL     OW 7603   2.403   2.314   4.069 -0.1884 -0.5957 -0.4172
 2595SOL    HW1 7604   2.321   2.268   4.034 -0.4879 -0.3394 -0.0637
 2595SOL    HW2 7605   2.410   2.404   4.027  0.1354 -0.7727 -0.7484
 2596SOL     OW 7606   4.600   3.491   2.205  0.1110  0.9063 -0.9923
 2596SOL    HW1 7607   4.629   3.398   2.228 -0.5451  0.8884 -0.1796
 2596SOL    HW2 7608   4.602   3.547   2.287 -1.5346  1.0588 -1.0297
 2597SOL     OW 7609   3.607   3.644   3.416  0.2000  0.4055 -0.1803
 2597SOL    HW1 7610   3.576   3.679   3.328 -0.3745  0.4799  0.0453
 2597SOL    HW2 7611   3.538   3.583   3.454  1.4937 -1.5687 -0.8921
 2598SOL     OW 7612   2.926   3.268   2.979 -0.3672 -0.7435 -0.6576
 2598SOL    HW1 7613   3.004   3.276   3.041 -0.1551  2.6798 -1.2250
 2598SOL    HW2 7614   2.955   3.224   2.894  0.5681 -0.8926 -0.2757
 2599SOL     OW 7615   3.695   1.999   2.741 -0.3342 -0.3341  0.6011
 2599SOL    HW1 7616   3.708   1.929   2.672  0.6164 -0.6874  1.1200
 2599SOL    HW2 7617   3.776   2.003   2.800 -0.6563  0.7341  0.9907
 2600SOL     OW 7618   3.681   3.382   2.333 -0.2359 -0.2385  0.2392
 2600SOL    HW1 7619   3.767   3.368   2.383 -0.2711 -0.7558  0.1640
 2600SOL    HW2 7620   3.680   3.322   2.252 -0.3569  0.2930 -0.1544
 2601SOL     OW 7621   0.811   4.039   4.925 -0.6395 -0.5563  0.6385
 2601SOL    HW1 7622   0.889   4.055   4.985 -1.3986 -0.9111  1.7541
 2601SOL    HW2 7623   0.804   4.114   4.859  0.4927 -0.4001  0.6728
 2602SOL     OW 7624   3.094   3.016   4.217 -0.2856 -0.7228  0.4271
 2602SOL    HW1 7625   3.060   2.948   4.152 -1.2927 -0.3671  0.5660
 2602SOL    HW2 7626   3.176   3.060   4.180  0.7533 -2.4072  0.5800
 2603SOL     OW 7627   2.212   3.220   1.881 -0.5310 -0.0306  0.5370
 2603SOL    HW1 7628   2.126   3.175   1.906 -0.9954  0.2680 -0.4595
 2603SOL    HW2 7629   2.221   3.222   1.781  1.1449 -0.9750  0.6413
 2604SOL     OW 7630   4.153   3.296   4.461  0.5408  0.4115 -0.3835
 2604SOL    HW1 7631   4.215   3.217   4.467  0.2055  0.2104  0.6728
 2604SOL    HW2 7632   4.071   3.277   4.515  0.7894  1.7769  0.5137
 2605SOL     OW 7633   4.768   1.787   2.072 -0.0065 -0.1618  0.3311
 2605SOL    HW1 7634   4.789   1.830   1.985  1.1988 -0.5966  0.3894
 2605SOL    HW2 7635   4.682   1.736   2.064 -0.6611  0.9678 -0.1677
 2606SOL     OW 7636   1.937   3.282   2.364  0.1510 -0.6331 -0.0503
 2606SOL    HW1 7637   1.904   3.201   2.316  1.6438 -2.4947  1.8713
 2606SOL    HW2 7638   1.886   3.294   2.449  1.1132 -0.6484  0.5466
 2607SOL     OW 7639   1.078   2.754   3.511 -0.0266 -0.3197 -0.3754
 2607SOL    HW1 7640   1.092   2.835   3.568  0.7565 -0.2304 -0.6764
 2607SOL    HW2 7641   0.990   2.760   3.465 -0.2980  0.0049  0.1806
 2608SOL     OW 7642   2.068   2.772   1.584  0.4256 -0.3000  0.2485
 2608SOL    HW1 7643   1.993   2.792   1.647  2.3322 -0.4114  2.7075
 2608SOL    HW2 7644   2.128   2.852   1.577  2.7865 -1.7462  2.4180
 2609SOL     OW 7645   2.586   2.619   0.475  0.2718  0.1627 -0.1981
 2609SOL    HW1 7646   2.586   2.638   0.573 -1.9677  0.7679 -0.2470
 2609SOL    HW2 7647   2.569   2.522   0.460 -1.0681  0.3455  0.0338
 2610SOL     OW 7648   2.453   1.863   3.636  0.1431  0.3976 -0.3366
 2610SOL    HW1 7649   2.413   1.859   3.544 -0.4236  0.9894 -0.1191
 2610SOL    HW2 7650   2.384   1.894   3.701  0.2003 -1.1451  0.5037
 2611SOL     OW 7651   4.884   2.656   3.662  0.4837 -0.2568 -0.5116
 2611SOL    HW1 7652   4.899   2.664   3.564 -0.5752  0.4997 -0.6238
 2611SOL    HW2 7653   4.805   2.712   3.689  0.3982 -0.9132  0.6738
 2612SOL     OW 7654   2.778   2.108   3.320 -0.2283 -0.7609  0.1844
 2612SOL    HW1 7655   2.873   2.095   3.348  0.5260  0.8272 -1.4117
 2612SOL    HW2 7656   2.775   2.169   3.241 -2.6254 -0.4726  0.4245
 2613SOL     OW 7657   3.143   4.469   2.154  0.1587  0.6526 -0.3897
 2613SOL    HW1 7658   3.117   4.403   2.083 -0.4851  0.2230  0.2249
 2613SOL    HW2 7659   3.231   4.444   2.193 -0.7865 -0.8143  0.9360
 2614SOL     OW 7660   3.643   1.545   3.215  0.4009  0.8529  0.3643
 2614SOL    HW1 7661   3.721   1.525   3.157  0.6622  0.2327  0.9126
 2614SOL    HW2 7662   3.673   1.552   3.311 -0.0870  1.4254  0.4858
 2615SOL     OW 7663   1.912   3.650   2.600 -0.5559 -0.0201 -0.1480
 2615SOL    HW1 7664   1.952   3.729   2.647  3.0634 -1.7036 -0.1323
 2615SOL    HW2 7665   1.982   3.604   2.545 -2.1647 -3.9158  0.7401
 2616SOL     OW 7666   3.068   1.805   3.523  0.0636 -0.3690  0.1932
 2616SOL    HW1 7667   3.147   1.796   3.584 -0.3740  1.0778  1.0311
 2616SOL    HW2 7668   3.098   1.803   3.428  1.1369  0.3008  0.5029
 2617SOL     OW 7669   2.798   1.328   4.035  0.0047 -0.5225 -0.7237
 2617SOL    HW1 7670   2.775   1.341   3.939  0.2259  2.7756 -0.4206
 2617SOL    HW2 7671   2.721   1.285   4.082 -1.3501  0.6514 -1.7935
 2618SOL     OW 7672   2.727   1.577   2.092 -0.1887  0.1272 -0.1002
 2618SOL    HW1 7673   2.778   1.501   2.051  2.1966  1.2991  0.5461
 2618SOL    HW2 7674   2.742   1.579   2.191 -1.1857  0.7686  0.0579
 2619SOL     OW 7675   2.995   2.452   3.162  0.0297  0.3700 -0.8020
 2619SOL    HW1 7676   3.009   2.538   3.113  1.4003 -0.0443 -1.1849
 2619SOL    HW2 7677   2.956   2.471   3.252  0.4933  1.4252 -0.8095
 2620SOL     OW 7678   2.448   1.644   2.032 -0.1535  0.1991 -0.5704
 2620SOL    HW1 7679   2.421   1.712   2.101  1.1679 -0.3722  0.5430
 2620SOL    HW2 7680   2.545   1.624   2.040 -0.2125 -0.7634 -1.8556
 2621SOL     OW 7681   3.083   3.234   2.275  0.8100 -0.1793  0.0143
 2621SOL    HW1 7682   3.065   3.324   2.237  0.0538 -0.5223 -0.4568
 2621SOL    HW2 7683   3.059   3.163   2.209 -1.3777 -0.8183  1.3922
 2622SOL     OW 7684   3.110   2.716   3.529 -0.1399  0.0123  0.2971
 2622SOL    HW1 7685   3.167   2.661   3.468 -0.0227  0.0518  0.3702
 2622SOL    HW2 7686   3.152   2.806   3.540  0.5379 -0.4212  1.4666
 2623SOL     OW 7687   3.103   4.045   3.552  0.1069 -0.3448  0.0674
 2623SOL    HW1 7688   3.106   4.013   3.457 -0.1283 -1.4664  0.4151
 2623SOL    HW2 7689   3.091   4.144   3.554  0.1130 -0.3079 -1.0721
 2624SOL     OW 7690   3.358   1.427   4.680 -0.6733 -0.0836  0.0790
 2624SOL    HW1 7691   3.283   1.438   4.614 -0.4829  0.2931 -0.0805
 2624SOL    HW2 7692   3.369   1.330   4.703  1.1870 -0.6604 -2.7258
 2625SOL     OW 7693   2.772   2.656   3.909 -0.0369 -0.6330  0.0037
 2625SOL    HW1 7694   2.839   2.583   3.922  0.8372  0.3982  1.6593
 2625SOL    HW2 7695   2.796   2.734   3.966  0.3077  1.8670 -3.2802
 2626SOL     OW 7696   2.679   4.469   4.772  0.1843  0.2922 -0.0566
 2626SOL    HW1 7697   2.580   4.478   4.782  0.3800  0.3535  2.8530
 2626SOL    HW2 7698   2.708   4.380   4.808  1.4198  1.5470  2.3420
 2627SOL     OW 7699   3.847   3.674   3.337 -0.3858  0.0465 -0.3997
 2627SOL    HW1 7700   3.756   3.645   3.366 -0.3529  0.4492  0.1188
 2627SOL    HW2 7701   3.910   3.597   3.344 -0.7457 -0.3052 -1.0225
 2628SOL     OW 7702   3.518   2.911   4.022  0.0401 -0.2106  0.1695
 2628SOL    HW1 7703   3.610   2.922   3.985 -0.0722 -0.6349 -0.2347
 2628SOL    HW2 7704   3.460   2.863   3.956 -0.1060 -1.1538  0.9575
 2629SOL     OW 7705   4.336   4.519   2.679  0.1690  0.6770 -0.0250
 2629SOL    HW1 7706   4.299   4.426   2.674 -0.6252  0.9860 -0.1376
 2629SOL    HW2 7707   4.393   4.537   2.599 -2.1319  1.2868 -1.6299
 2630SOL     OW 7708   2.795   3.429   3.215 -0.0601  0.3977 -0.5740
 2630SOL    HW1 7709   2.861   3.503   3.198  2.2020 -1.7236 -1.7698
 2630SOL    HW2 7710   2.751   3.403   3.129 -1.9560  1.2905  0.0946
 2631SOL     OW 7711   3.748   4.185   2.278  0.4203 -0.3133 -0.2554
 2631SOL    HW1 7712   3.653   4.196   2.248  0.0233 -0.0056  1.0155
 2631SOL    HW2 7713   3.772   4.089   2.277  0.8596 -0.2414 -2.6994
 2632SOL     OW 7714   2.709   2.549   1.996 -0.4981  0.1077  0.3627
 2632SOL    HW1 7715   2.739   2.587   2.083 -1.1711  2.4073 -0.3472
 2632SOL    HW2 7716   2.737   2.609   1.921  1.3464 -2.5140 -1.2348
 2633SOL     OW 7717   3.619   2.748   2.085  0.5462  0.0711  0.2967
 2633SOL    HW1 7718   3.692   2.713   2.026  0.5655 -0.5209  0.6545
 2633SOL    HW2 7719   3.630   2.709   2.177 -0.9220 -1.0238  0.0483
 2634SOL     OW 7720   2.535   3.705   4.349 -0.2160 -0.4346 -0.2768
 2634SOL    HW1 7721   2.556   3.624   4.294 -1.5786 -0.5037 -0.7423
 2634SOL    HW2 7722   2.443   3.696   4.387  1.2485 -1.2104  3.5557
 2635SOL     OW 7723   2.247   2.782   3.529  0.4825 -0.1177 -0.1689
 2635SOL    HW1 7724   2.163   2.834   3.518  1.4378  1.8038  0.9920
 2635SOL    HW2 7725   2.272   2.739   3.442 -1.3460 -0.2150 -0.6789
 2636SOL     OW 7726   3.894   2.151   3.133 -0.4022  0.7169 -0.5797
 2636SOL    HW1 7727   3.845   2.224   3.084  0.4262  1.7048  0.0269
 2636SOL    HW2 7728   3.874   2.158   3.230 -1.0005 -0.4289 -0.5990
 2637SOL     OW 7729   3.816   3.929   2.256 -0.7785 -0.2070 -0.4215
 2637SOL    HW1 7730   3.771   3.879   2.183 -1.1853  0.3137 -0.5343
 2637SOL    HW2 7731   3.889   3.873   2.295  0.6228  0.1289 -2.4042
 2638SOL     OW 7732   2.112   2.441   3.124  0.0096  0.3656 -0.0616
 2638SOL    HW1 7733   2.074   2.533   3.129 -0.0055  0.3829 -0.4424
 2638SOL    HW2 7734   2.077   2.395   3.043 -0.5804 -0.2481  0.5312
 2639SOL     OW 7735   2.982   3.546   1.879  0.3239 -0.2577  0.6142
 2639SOL    HW1 7736   3.065   3.541   1.824 -0.0933 -1.2785  0.0461
 2639SOL    HW2 7737   2.908   3.586   1.824  0.3493  0.3282  1.0035
 2640SOL     OW 7738   3.795   2.243   3.365 -0.1409 -0.0385  0.2630
 2640SOL    HW1 7739   3.737   2.192   3.429  0.4070  1.3742  1.9629
 2640SOL    HW2 7740   3.749   2.327   3.338  0.0250 -0.1813 -0.4727
 2641SOL     OW 7741   3.989   2.027   2.896  0.5970  0.1074  0.1409
 2641SOL    HW1 7742   3.967   2.047   2.992  0.0042  1.3252 -0.2219
 2641SOL    HW2 7743   4.071   2.077   2.870  0.2288  0.5309 -0.2314
 2642SOL     OW 7744   2.560   3.490   2.064 -0.5217  0.3095 -0.4646
 2642SOL    HW1 7745   2.461   3.477   2.057 -0.5865  0.9791 -0.8097
 2642SOL    HW2 7746   2.594   3.440   2.144 -1.1890  0.3702 -0.1364
 2643SOL     OW 7747   3.105   4.201   4.193 -0.4332 -0.1318 -0.1089
 2643SOL    HW1 7748   3.171   4.127   4.204  0.8402  0.9304 -0.4507
 2643SOL    HW2 7749   3.048   4.183   4.113  0.5661 -0.2468 -0.8136
 2644SOL     OW 7750   3.027   2.062   3.401  0.0778 -0.1540  0.7622
 2644SOL    HW1 7751   3.088   2.004   3.455  0.5681  0.3344  0.7367
 2644SOL    HW2 7752   3.079   2.111   3.331 -0.4742 -0.3783  0.1874
 2645SOL     OW 7753   3.005   1.895   3.066 -0.4913  0.2309 -0.0714
 2645SOL    HW1 7754   3.047   1.842   3.140  0.7291  2.3664  0.8522
 2645SOL    HW2 7755   3.077   1.934   3.008 -1.3937 -0.1245 -1.4797
 2646SOL     OW 7756   3.858   1.332   2.253 -0.4211 -0.3228  0.1577
 2646SOL    HW1 7757   3.822   1.246   2.290 -2.0808 -0.3776 -1.4491
 2646SOL    HW2 7758   3.861   1.327   2.153  0.2855  1.1901  0.0773
 2647SOL     OW 7759   2.642   2.952   1.569 -0.7863 -0.0773  0.2394
 2647SOL    HW1 7760   2.604   2.947   1.661  0.9970 -0.4391  0.9813
 2647SOL    HW2 7761   2.720   3.014   1.567 -2.3482  2.0216 -1.6447
 2648SOL     OW 7762   3.360   2.131   4.886 -0.2259  0.5767  0.5433
 2648SOL    HW1 7763   3.271   2.175   4.898 -0.8950  0.0025 -1.7263
 2648SOL    HW2 7764   3.413   2.181   4.817  0.7018  0.2011  0.9666
 2649SOL     OW 7765   1.467   2.331   4.115 -0.0401  0.0979 -0.3093
 2649SOL    HW1 7766   1.386   2.352   4.061 -0.7662 -1.2434  0.2108
 2649SOL    HW2 7767   1.441   2.314   4.210  0.7758 -0.7083 -0.2057
 2650SOL     OW 7768   1.855   3.040   4.325  0.4260 -0.2550  0.1161
 2650SOL    HW1 7769   1.910   2.969   4.369  0.6132 -1.2807 -1.7116
 2650SOL    HW2 7770   1.909   3.123   4.316  1.0964 -0.7062 -0.0888
 2651SOL     OW 7771   1.433   3.201   4.672  0.4273 -0.0874  0.3051
 2651SOL    HW1 7772   1.524   3.230   4.642  0.1365  0.8551  0.3098
 2651SOL    HW2 7773   1.365   3.269   4.644 -0.0473  0.1084  1.8583
 2652SOL     OW 7774   2.331   3.154   4.810 -0.5116 -0.1679 -0.4027
 2652SOL    HW1 7775   2.402   3.150   4.880 -0.7844  0.7382 -0.0664
 2652SOL    HW2 7776   2.320   3.063   4.769  0.8751 -0.3142 -0.5066
 2653SOL     OW 7777   3.437   2.209   0.055  0.2740  0.0321 -0.0933
 2653SOL    HW1 7778   3.409   2.152  -0.023 -2.1086  0.1931  0.5735
 2653SOL    HW2 7779   3.436   2.305   0.027  0.6874 -0.0003 -0.2185
 2654SOL     OW 7780   3.629   2.076   3.955  0.3630  0.3505  0.1519
 2654SOL    HW1 7781   3.560   2.006   3.940  1.1910 -0.8406  1.6196
 2654SOL    HW2 7782   3.590   2.166   3.939 -1.3862 -0.3116  0.5389
 2655SOL     OW 7783   1.533   1.874   0.105  0.3350 -0.1170 -0.0654
 2655SOL    HW1 7784   1.568   1.793   0.155  0.0633  0.7260  1.5725
 2655SOL    HW2 7785   1.610   1.921   0.061  0.8568  0.0105  0.9399
 2656SOL     OW 7786   1.378   1.979   3.210 -0.1803 -0.2496  0.1445
 2656SOL    HW1 7787   1.347   1.910   3.276 -1.3852 -2.1525 -2.2581
 2656SOL    HW2 7788   1.303   2.041   3.189 -0.9331 -1.7223 -1.8446
 2657SOL     OW 7789   2.072   3.688   0.408  0.1531 -0.2597 -0.4109
 2657SOL    HW1 7790   2.157   3.640   0.385 -0.0265 -1.3570  1.0388
 2657SOL    HW2 7791   2.023   3.711   0.324  1.3484 -0.6011 -1.2322
 2658SOL     OW 7792   3.021   1.036   4.656  0.1564 -0.2767  0.2825
 2658SOL    HW1 7793   2.996   1.104   4.724 -0.8144 -0.5349  0.1902
 2658SOL    HW2 7794   2.978   0.949   4.677  0.6149 -0.6150 -0.1351
 2659SOL     OW 7795   2.780   4.904   3.173 -0.4104 -0.0019  0.3237
 2659SOL    HW1 7796   2.727   4.819   3.172 -1.1911  0.4799 -0.2617
 2659SOL    HW2 7797   2.862   4.892   3.117 -0.8463 -0.1692 -0.2901
 2660SOL     OW 7798   1.525   3.770   3.675 -0.1118  0.4951 -0.2187
 2660SOL    HW1 7799   1.600   3.735   3.730 -1.2072  0.1917  1.1281
 2660SOL    HW2 7800   1.532   3.869   3.668  0.3485  0.4783 -0.0083
 2661SOL     OW 7801   1.269   2.230   0.039 -0.1916 -0.2649 -0.4082
 2661SOL    HW1 7802   1.328   2.157   0.076 -0.9802 -0.6928  0.0382
 2661SOL    HW2 7803   1.221   2.274   0.115 -1.0805 -0.4868 -0.8293
 2662SOL     OW 7804   1.400   3.037   4.442 -0.4296 -0.2655  0.0054
 2662SOL    HW1 7805   1.486   3.069   4.404 -0.2144 -0.8088  0.0396
 2662SOL    HW2 7806   1.386   3.080   4.532  0.6245 -1.4377  0.7716
 2663SOL     OW 7807   2.721   2.801   3.551  0.3558  0.0372  0.0536
 2663SOL    HW1 7808   2.638   2.855   3.547  0.0514 -0.4567 -0.6102
 2663SOL    HW2 7809   2.793   2.852   3.599  0.1684  1.1305 -0.7963
 2664SOL     OW 7810   1.782   3.570   4.785 -0.4143  0.1104 -0.1642
 2664SOL    HW1 7811   1.742   3.662   4.793 -2.2311 -0.4829 -1.7092
 2664SOL    HW2 7812   1.761   3.518   4.868  0.6969  1.0685  0.7606
 2665SOL     OW 7813   2.774   4.057   4.512 -0.0869  0.2102  0.2542
 2665SOL    HW1 7814   2.786   4.153   4.536 -1.3292  0.7236 -1.0524
 2665SOL    HW2 7815   2.703   4.017   4.570  1.0359 -0.1948  1.3996
 2666SOL     OW 7816   1.871   3.017   5.082  0.2489  0.0405  0.6568
 2666SOL    HW1 7817   1.912   2.980   5.165  1.7612 -0.2120 -0.1567
 2666SOL    HW2 7818   1.942   3.053   5.023 -0.4723 -1.8377 -1.5406
 2667SOL     OW 7819   2.574   2.229   5.083 -0.1441  0.2020 -1.0799
 2667SOL    HW1 7820   2.610   2.176   5.006 -0.4802 -0.9827 -0.4444
 2667SOL    HW2 7821   2.528   2.311   5.048 -0.7955 -0.6065 -2.1958
 2668SOL     OW 7822   3.191   2.962   3.586  0.1868 -0.4770  0.3861
 2668SOL    HW1 7823   3.214   3.019   3.508  1.9281 -0.7090  0.6940
 2668SOL    HW2 7824   3.184   3.019   3.668  0.6531 -0.5280  0.4641
 2669SOL     OW 7825   2.266   2.274   0.409  0.0554  0.1264  0.1947
 2669SOL    HW1 7826   2.320   2.298   0.489  0.5930  0.5122 -0.2772
 2669SOL    HW2 7827   2.324   2.229   0.341 -0.3197  0.1261 -0.1312
 2670SOL     OW 7828   0.622   1.564   4.843  0.0817 -0.2353 -0.2757
 2670SOL    HW1 7829   0.638   1.475   4.886 -0.1444 -0.0806  0.1359
 2670SOL    HW2 7830   0.708   1.600   4.807  0.1754 -0.6168 -0.4410
 2671SOL     OW 7831   1.131   3.221   4.534 -0.3609 -0.0457 -0.3429
 2671SOL    HW1 7832   1.095   3.268   4.453 -4.2937  0.1899  1.3127
 2671SOL    HW2 7833   1.087   3.132   4.543  0.6075 -0.4073  1.0851
 2672SOL     OW 7834   2.854   3.533   4.071 -0.0326  0.1633 -0.3465
 2672SOL    HW1 7835   2.775   3.475   4.050  1.1033 -0.9938 -1.6764
 2672SOL    HW2 7836   2.853   3.614   4.013 -0.4712  0.3658 -0.0555
 2673SOL     OW 7837   2.884   3.036   0.518  0.2374 -0.3668  0.2073
 2673SOL    HW1 7838   2.883   2.939   0.490 -4.3252 -0.7150  0.9238
 2673SOL    HW2 7839   2.923   3.043   0.610 -1.0933 -1.8821  0.9441
 2674SOL     OW 7840   3.257   3.989   4.199  0.3884 -0.4450  0.0517
 2674SOL    HW1 7841   3.260   3.978   4.299  1.1626 -1.8109 -0.1039
 2674SOL    HW2 7842   3.248   3.900   4.156 -0.6872  0.1977 -1.0974
 2675SOL     OW 7843   2.686   2.536   4.248 -0.1226  0.6967  0.4013
 2675SOL    HW1 7844   2.606   2.586   4.213  0.0054 -0.4327 -1.6558
 2675SOL    HW2 7845   2.768   2.568   4.201 -0.2025 -2.2031 -1.9924
 2676SOL     OW 7846   3.004   2.087   0.526  0.2230 -0.1191  0.1148
 2676SOL    HW1 7847   3.035   1.993   0.539 -1.5067 -0.7087  0.1882
 2676SOL    HW2 7848   2.904   2.090   0.528  0.2390  2.0400  2.3007
 2677SOL     OW 7849   2.204   4.762   4.537  0.2962  0.3578  0.1288
 2677SOL    HW1 7850   2.300   4.761   4.510 -0.1963 -0.4730 -1.8065
 2677SOL    HW2 7851   2.180   4.852   4.572  1.0063  1.7145 -2.5633
 2678SOL     OW 7852   2.210   3.491   0.797 -0.3216 -0.3901  0.4688
 2678SOL    HW1 7853   2.245   3.562   0.857 -0.2868 -1.8011  2.1951
 2678SOL    HW2 7854   2.112   3.478   0.814 -0.4172 -0.4729 -0.1336
 2679SOL     OW 7855   3.202   1.339   3.886  0.1483  0.1957 -0.2790
 2679SOL    HW1 7856   3.247   1.253   3.863 -0.1317  0.1661 -0.7391
 2679SOL    HW2 7857   3.204   1.353   3.985 -0.5576 -0.7474 -0.1203
 2680SOL     OW 7858   2.079   4.746   4.180  0.2052 -0.4497  0.3186
 2680SOL    HW1 7859   2.176   4.766   4.191  0.4724 -1.4798  0.0050
 2680SOL    HW2 7860   2.066   4.689   4.099 -0.7929  0.5264 -0.2380
 2681SOL     OW 7861   2.384   0.234   2.436 -0.1276 -0.1872  0.0135
 2681SOL    HW1 7862   2.378   0.140   2.469 -1.6552 -0.8126 -1.8522
 2681SOL    HW2 7863   2.406   0.233   2.339  2.2008  1.5052  0.4555
 2682SOL     OW 7864   3.101   3.898   1.990 -0.0460  0.0412  0.0786
 2682SOL    HW1 7865   3.196   3.909   2.021 -0.2434 -0.9231  1.0931
 2682SOL    HW2 7866   3.046   3.861   2.065 -1.7099  2.5340  0.2065
 2683SOL     OW 7867   0.700   2.191   4.096  0.3301 -0.2166  0.1229
 2683SOL    HW1 7868   0.734   2.195   4.002  1.0758  0.8302  0.4113
 2683SOL    HW2 7869   0.717   2.099   4.134  1.9727 -0.0364 -0.0907
 2684SOL     OW 7870   1.929   3.841   4.586  0.3932 -0.5767 -0.0216
 2684SOL    HW1 7871   1.992   3.913   4.559 -0.7114  1.0000  1.3610
 2684SOL    HW2 7872   1.956   3.805   4.675 -0.6395  0.1600  0.6146
 2685SOL     OW 7873   2.352   4.305   4.802  0.4004  0.1898  0.0997
 2685SOL    HW1 7874   2.324   4.254   4.883 -1.6970  0.9193 -0.1103
 2685SOL    HW2 7875   2.299   4.389   4.796  1.2368  0.6431 -1.5097
 2686SOL     OW 7876   2.459   2.481   5.028  0.1714 -0.1130 -0.2343
 2686SOL    HW1 7877   2.423   2.488   4.936 -1.0952 -0.4459  0.2143
 2686SOL    HW2 7878   2.399   2.530   5.091  0.7664 -0.2805  0.4815
 2687SOL     OW 7879   1.429   3.993   3.410  0.2012  0.3433 -0.3070
 2687SOL    HW1 7880   1.413   3.995   3.509 -2.8048  0.1420 -0.7099
 2687SOL    HW2 7881   1.435   3.898   3.379 -0.9009  0.3488 -0.5669
 2688SOL     OW 7882   3.063   2.848   0.262  0.2718  0.0942 -0.8264
 2688SOL    HW1 7883   3.012   2.824   0.179 -0.6166 -2.3200  0.3113
 2688SOL    HW2 7884   3.003   2.839   0.341  1.5726  0.6334  0.2539
 2689SOL     OW 7885   2.016   2.260   5.035  0.0456  0.1670  0.1268
 2689SOL    HW1 7886   2.069   2.214   5.106 -0.8746  0.1166  0.8029
 2689SOL    HW2 7887   1.933   2.298   5.075  0.3789  1.7108 -0.5735
 2690SOL     OW 7888   4.184   3.644   3.500  0.0711  0.4069 -0.2591
 2690SOL    HW1 7889   4.134   3.629   3.585  0.8216  1.6883  0.4313
 2690SOL    HW2 7890   4.274   3.683   3.520 -0.0068  1.4084 -1.6690
 2691SOL     OW 7891   2.725   4.274   0.046  0.0527 -0.2648 -0.4260
 2691SOL    HW1 7892   2.778   4.294   0.129  1.4928 -0.6775 -1.2180
 2691SOL    HW2 7893   2.630   4.303   0.060  0.1538 -0.7139  1.5183
 2692SOL     OW 7894   3.393   1.847   4.531 -0.3980 -0.0259 -0.2591
 2692SOL    HW1 7895   3.341   1.817   4.451 -0.7855  0.2399 -0.1135
 2692SOL    HW2 7896   3.468   1.784   4.548 -1.8694 -1.6092  0.7572
 2693SOL     OW 7897   1.877   4.380   4.371 -0.5367  0.0581 -0.4304
 2693SOL    HW1 7898   1.916   4.460   4.417 -0.8020  0.8474 -1.5260
 2693SOL    HW2 7899   1.830   4.410   4.288 -1.2614 -1.1690 -0.4774
 2694SOL     OW 7900   2.815   3.096   0.181  0.5283 -0.0612 -0.0606
 2694SOL    HW1 7901   2.887   3.135   0.123 -0.2498  0.7824 -0.4712
 2694SOL    HW2 7902   2.804   3.151   0.263  0.2264 -0.0957 -0.0783
 2695SOL     OW 7903   1.831   3.372   4.078  0.2480 -0.2488  0.2667
 2695SOL    HW1 7904   1.757   3.382   4.011  0.2286  2.7525  0.5635
 2695SOL    HW2 7905   1.919   3.377   4.031  0.2302  1.1726  0.3340
 2696SOL     OW 7906   2.118   1.508   4.060  0.1171 -0.2152  0.1266
 2696SOL    HW1 7907   2.089   1.415   4.039 -1.5672  0.2075  0.4133
 2696SOL    HW2 7908   2.072   1.572   3.998  0.3742  0.5086  0.6691
 2697SOL     OW 7909   2.909   3.243   4.598  0.5749  0.2482  0.0722
 2697SOL    HW1 7910   2.968   3.313   4.558 -0.9203  0.8619 -1.1707
 2697SOL    HW2 7911   2.920   3.242   4.697  0.6944  2.1902  0.1041
 2698SOL     OW 7912   1.919   2.397   4.610 -0.0704  0.1911  0.7167
 2698SOL    HW1 7913   1.908   2.335   4.688  1.6009 -0.9929  0.0570
 2698SOL    HW2 7914   2.014   2.398   4.580 -0.5101  1.2587 -0.8003
 2699SOL     OW 7915   1.605   1.763   3.656  0.3982 -0.2988  0.6131
 2699SOL    HW1 7916   1.573   1.847   3.612  0.3745  0.0598  1.3010
 2699SOL    HW2 7917   1.543   1.688   3.635  1.2652 -0.5304 -1.3121
 2700SOL     OW 7918   3.241   3.546   4.662  0.0445  0.7401  0.2395
 2700SOL    HW1 7919   3.241   3.488   4.581  0.1564 -0.0100  0.7710
 2700SOL    HW2 7920   3.147   3.559   4.693  0.0387  0.6081  0.2794
 2701SOL     OW 7921   2.267   2.011   4.146 -0.4384  0.0669 -0.6359
 2701SOL    HW1 7922   2.207   1.958   4.205  0.7091 -0.2324  0.3028
 2701SOL    HW2 7923   2.213   2.075   4.092 -1.7178 -1.1577 -0.8491
 2702SOL     OW 7924   1.393   1.591   3.623  0.2069  0.0307  0.3504
 2702SOL    HW1 7925   1.456   1.550   3.688  0.4790  0.3827  0.3128
 2702SOL    HW2 7926   1.331   1.521   3.587 -1.6605  0.2402  2.8694
 2703SOL     OW 7927   2.512   3.099   3.861  0.6262  0.0615  0.1075
 2703SOL    HW1 7928   2.612   3.095   3.855  0.6202 -0.3445  0.2173
 2703SOL    HW2 7929   2.483   3.193   3.878  0.8754  0.5542 -1.9339
 2704SOL     OW 7930   2.353   2.708   4.377 -0.0844  0.3042  0.4868
 2704SOL    HW1 7931   2.280   2.738   4.316  2.1017  0.3193 -2.2988
 2704SOL    HW2 7932   2.322   2.628   4.429 -1.9957  0.1761 -0.7478
 2705SOL     OW 7933   2.300   4.415   0.674 -0.4093  0.2232 -0.1886
 2705SOL    HW1 7934   2.303   4.473   0.755  0.1950 -0.1999  0.1010
 2705SOL    HW2 7935   2.281   4.321   0.701 -1.8265  0.3400 -0.6944
 2706SOL     OW 7936   1.899   2.223   4.808  0.1291  0.2294  0.4254
 2706SOL    HW1 7937   1.941   2.148   4.756  0.2480  1.9178 -2.0983
 2706SOL    HW2 7938   1.956   2.244   4.887 -0.2204 -2.6620  1.5648
 2707SOL     OW 7939   1.375   2.551   4.689  0.4518 -0.1189  0.3410
 2707SOL    HW1 7940   1.315   2.519   4.762  0.3046 -1.1746 -0.2278
 2707SOL    HW2 7941   1.449   2.607   4.728  0.5613 -0.9365  1.3332
 2708SOL     OW 7942   1.685   3.222   4.554  0.7776  0.5477  0.0976
 2708SOL    HW1 7943   1.762   3.227   4.617  2.8561  1.3650 -2.3541
 2708SOL    HW2 7944   1.698   3.146   4.491  0.2586  1.4518 -1.1561
 2709SOL     OW 7945   2.683   1.360   0.788 -0.2139  0.5250  0.6328
 2709SOL    HW1 7946   2.743   1.437   0.763  0.6657 -0.5773 -0.8093
 2709SOL    HW2 7947   2.713   1.321   0.875  1.0461  0.1356  0.0426
 2710SOL     OW 7948   3.667   2.806   3.646 -0.1136 -1.2369  0.0341
 2710SOL    HW1 7949   3.714   2.848   3.724 -0.4348 -3.1011  1.3041
 2710SOL    HW2 7950   3.689   2.856   3.562  2.6430 -0.9294  0.8555
 2711SOL     OW 7951   3.266   2.413   0.285  0.2751  0.1086  0.6507
 2711SOL    HW1 7952   3.345   2.473   0.294 -0.1885  0.7646  0.4738
 2711SOL    HW2 7953   3.233   2.388   0.376  0.1362  0.5814  0.7330
 2712SOL     OW 7954   3.215   1.826   0.445 -0.5719  0.4861 -0.0124
 2712SOL    HW1 7955   3.204   1.901   0.379  0.8798  2.7987  2.1733
 2712SOL    HW2 7956   3.238   1.742   0.396  0.8172  2.1484 -2.4558
 2713SOL     OW 7957   2.839   3.525   3.726 -0.4047  0.1920  0.0336
 2713SOL    HW1 7958   2.834   3.624   3.725  0.8325  0.3142  1.2931
 2713SOL    HW2 7959   2.748   3.486   3.713 -1.4413  1.5535  2.5045
 2714SOL     OW 7960   3.127   4.067   4.506 -0.3102 -0.0331  0.5172
 2714SOL    HW1 7961   3.046   4.017   4.476 -0.6798  1.3177 -0.8646
 2714SOL    HW2 7962   3.108   4.165   4.504  1.6404  0.3645 -0.7312
 2715SOL     OW 7963   4.045   2.879   3.979  0.3389 -0.5150  0.1758
 2715SOL    HW1 7964   4.064   2.954   4.043  2.5240 -0.7830 -0.0722
 2715SOL    HW2 7965   4.090   2.898   3.892  0.1762 -1.6882 -0.1789
 2716SOL     OW 7966   2.489   1.779   4.679 -0.0694  0.3575 -0.7354
 2716SOL    HW1 7967   2.423   1.852   4.697 -1.6548 -0.9820 -0.9010
 2716SOL    HW2 7968   2.533   1.795   4.591 -0.6088  0.9559 -0.9045
 2717SOL     OW 7969   3.523   2.705   0.589  0.6880 -0.7903  0.4216
 2717SOL    HW1 7970   3.583   2.786   0.585  0.4550 -0.6657 -1.6769
 2717SOL    HW2 7971   3.428   2.734   0.594  0.6264 -0.9261  0.0897
 2718SOL     OW 7972   3.349   3.578   0.423 -0.2064 -0.1594  0.5938
 2718SOL    HW1 7973   3.340   3.479   0.418 -0.1125 -0.1190 -0.6411
 2718SOL    HW2 7974   3.444   3.603   0.444 -0.2448 -0.3270  0.9691
 2719SOL     OW 7975   1.732   2.938   3.761 -0.0216  0.0216 -0.3238
 2719SOL    HW1 7976   1.831   2.936   3.772  0.0990  1.7018 -0.8514
 2719SOL    HW2 7977   1.689   2.894   3.841  1.1300 -2.3648 -0.9104
 2720SOL     OW 7978   3.487   3.602   0.864 -0.4144 -0.2921 -0.0263
 2720SOL    HW1 7979   3.562   3.641   0.917 -1.2420  0.4686  0.6192
 2720SOL    HW2 7980   3.475   3.655   0.779 -0.6112 -0.0390  0.1596
 2721SOL     OW 7981   2.780   2.696   1.716  0.6812  0.1420  0.5128
 2721SOL    HW1 7982   2.696   2.696   1.661  1.4746 -1.4761 -0.7888
 2721SOL    HW2 7983   2.796   2.787   1.752 -1.7565  0.4602  1.0001
 2722SOL     OW 7984   1.277   2.770   3.939  0.4774 -0.1648 -0.6384
 2722SOL    HW1 7985   1.310   2.683   3.901 -0.4282 -0.4447 -0.8145
 2722SOL    HW2 7986   1.219   2.751   4.018  1.5137  0.3687  0.2846
 2723SOL     OW 7987   2.707   2.582   4.536 -0.0367 -0.5532  0.7297
 2723SOL    HW1 7988   2.694   2.565   4.438 -1.7084  0.3060  0.7719
 2723SOL    HW2 7989   2.760   2.666   4.549 -0.8950  0.0315  0.5412
 2724SOL     OW 7990   2.865   1.838   4.786 -0.2359 -0.3150  0.4243
 2724SOL    HW1 7991   2.923   1.905   4.831 -0.6804 -1.0788  2.2105
 2724SOL    HW2 7992   2.876   1.847   4.687  1.8044  0.5350  0.6574
 2725SOL     OW 7993   3.269   2.131   4.535 -0.1140 -0.1696  0.0276
 2725SOL    HW1 7994   3.348   2.181   4.571 -0.8589  0.4381  0.8488
 2725SOL    HW2 7995   3.301   2.046   4.491  0.7809 -1.5396  3.0650
 2726SOL     OW 7996   2.139   2.833   4.694  0.1889  0.3206  0.1185
 2726SOL    HW1 7997   2.238   2.823   4.679  0.1199 -2.2538  0.9528
 2726SOL    HW2 7998   2.105   2.753   4.744 -2.1504  1.6580  0.7946
 2727SOL     OW 7999   1.993   2.578   0.108  0.5616 -0.3718 -0.5152
 2727SOL    HW1 8000   1.983   2.635   0.189  0.8511  0.1954 -0.8744
 2727SOL    HW2 8001   1.927   2.503   0.111  0.6462 -0.4236  0.2992
 2728SOL     OW 8002   2.904   2.422   0.418  0.0741 -0.0625 -0.0362
 2728SOL    HW1 8003   2.856   2.406   0.332 -0.4362 -1.3112  0.4548
 2728SOL    HW2 8004   2.997   2.384   0.412  0.2690  0.4354 -0.2476
 2729SOL     OW 8005   1.236   3.095   0.492  0.1498 -0.0443 -0.3959
 2729SOL    HW1 8006   1.324   3.116   0.449  0.5190 -0.2597  0.2302
 2729SOL    HW2 8007   1.252   3.067   0.587 -0.7213  1.5907  0.2895
 2730SOL     OW 8008   2.552   2.577   4.751  0.5456  0.3281  0.1272
 2730SOL    HW1 8009   2.610   2.579   4.671 -0.8831  1.3181 -0.9373
 2730SOL    HW2 8010   2.595   2.522   4.823  1.2066 -1.7913 -1.7982
 2731SOL     OW 8011   2.217   1.553   0.629 -0.1477 -0.3632 -0.2495
 2731SOL    HW1 8012   2.246   1.520   0.719  0.2860  1.5500  0.3381
 2731SOL    HW2 8013   2.271   1.507   0.558  0.8552 -0.4778  0.5719
 2732SOL     OW 8014   2.475   3.032   4.346  0.0791 -0.2485  0.3075
 2732SOL    HW1 8015   2.505   2.973   4.421  0.8942  0.4020  0.5122
 2732SOL    HW2 8016   2.397   3.087   4.376  0.1605 -0.2645  0.5501
 2733SOL     OW 8017   4.668   1.414   4.423 -0.1945  0.0428 -0.0392
 2733SOL    HW1 8018   4.688   1.338   4.485  0.5516 -0.2403 -0.6078
 2733SOL    HW2 8019   4.648   1.496   4.477 -0.5317 -0.4348  0.5769
 2734SOL     OW 8020   2.665   2.035   4.889  0.4033 -0.1859 -0.5829
 2734SOL    HW1 8021   2.763   2.020   4.886  0.6268  1.0112  0.0007
 2734SOL    HW2 8022   2.625   2.017   4.798  1.1266 -0.7812 -0.7917
 2735SOL     OW 8023   2.514   2.799   0.312  0.2247  0.3631 -0.3482
 2735SOL    HW1 8024   2.523   2.727   0.381  0.6841  2.9588  2.5471
 2735SOL    HW2 8025   2.419   2.804   0.282 -0.0085 -0.7899  0.1254
 2736SOL     OW 8026   2.493   2.534   3.890 -0.4337  0.5352  0.4577
 2736SOL    HW1 8027   2.586   2.571   3.891  0.2243 -1.0029  1.6220
 2736SOL    HW2 8028   2.431   2.599   3.845  1.3513  1.1917 -1.2036
 2737SOL     OW 8029   2.306   1.987   4.707  0.3038 -0.6299  0.3469
 2737SOL    HW1 8030   2.212   2.016   4.686  0.2926 -0.3097  0.8233
 2737SOL    HW2 8031   2.370   2.058   4.678  0.2779 -0.1134  1.4938
 2738SOL     OW 8032   2.983   3.306   3.829 -0.5324  0.1561  0.0131
 2738SOL    HW1 8033   2.993   3.334   3.925 -0.6455  0.5218 -0.0799
 2738SOL    HW2 8034   2.963   3.386   3.773  1.5449  0.2748 -0.6242
 2739SOL     OW 8035   2.491   2.682   4.143 -0.6180 -0.0805  0.4241
 2739SOL    HW1 8036   2.463   2.640   4.057  2.1906 -0.7086 -0.2948
 2739SOL    HW2 8037   2.415   2.681   4.207 -1.9730 -2.2341 -1.0854
 2740SOL     OW 8038   1.333   3.604   3.568  0.4356 -0.5092 -0.3530
 2740SOL    HW1 8039   1.387   3.671   3.619  1.0553 -0.8208 -0.5913
 2740SOL    HW2 8040   1.278   3.652   3.499 -2.2891  0.2140  2.0907
 2741SOL     OW 8041   2.551   2.161   3.462 -0.0396 -0.5466  0.1742
 2741SOL    HW1 8042   2.639   2.131   3.426  0.1972  1.2180 -0.8554
 2741SOL    HW2 8043   2.558   2.172   3.561  1.4755  1.1318 -0.0465
 2742SOL     OW 8044   2.763   1.920   1.377  0.3915  0.2431 -0.4540
 2742SOL    HW1 8045   2.808   1.886   1.295  0.0200  0.4461 -0.7467
 2742SOL    HW2 8046   2.798   1.871   1.457  2.2421  1.4515 -0.4814
 2743SOL     OW 8047   0.393   4.299   4.011  0.1316 -0.4345 -0.7027
 2743SOL    HW1 8048   0.376   4.373   3.945 -0.1875 -0.0210 -0.1659
 2743SOL    HW2 8049   0.428   4.338   4.096  1.2105 -1.0351 -0.8676
 2744SOL     OW 8050   1.937   3.239   4.709 -0.0568  0.2626 -0.0319
 2744SOL    HW1 8051   2.028   3.273   4.687 -0.5636  0.6166 -1.6911
 2744SOL    HW2 8052   1.936   3.206   4.804  1.3015  1.8739  0.5874
 2745SOL     OW 8053   2.982   2.451   4.766  0.3551 -0.0822  0.3031
 2745SOL    HW1 8054   2.902   2.400   4.733  0.1556 -0.5212  1.4097
 2745SOL    HW2 8055   2.952   2.525   4.826  0.7616 -0.1688  0.6212
 2746SOL     OW 8056   2.089   3.203   3.443  0.5919  0.0063  0.0234
 2746SOL    HW1 8057   2.117   3.293   3.476 -1.9223  1.6405 -1.8386
 2746SOL    HW2 8058   2.142   3.179   3.362  0.3111  0.5221 -0.3191
 2747SOL     OW 8059   1.996   2.380   4.249 -0.3334  0.3159  0.6118
 2747SOL    HW1 8060   1.934   2.455   4.228  0.9340  1.1392 -0.3237
 2747SOL    HW2 8061   2.036   2.394   4.339  0.0960  0.9188  0.3331
 2748SOL     OW 8062   1.686   1.812   4.717  0.3832  0.2823 -0.0772
 2748SOL    HW1 8063   1.614   1.857   4.769  0.0194  0.5828 -0.8357
 2748SOL    HW2 8064   1.663   1.812   4.620  1.3538  0.2990 -0.3212
 2749SOL     OW 8065   2.369   1.647   0.287  0.2010 -0.3905 -0.0139
 2749SOL    HW1 8066   2.350   1.644   0.189 -0.3951 -3.0926  0.1257
 2749SOL    HW2 8067   2.335   1.564   0.331 -0.4524  1.1818  2.6947
 2750SOL     OW 8068   2.112   2.748   4.223  0.2184 -0.3295 -0.0912
 2750SOL    HW1 8069   2.068   2.798   4.298 -0.2649  1.0284 -1.2398
 2750SOL    HW2 8070   2.043   2.693   4.175 -0.1990  1.3502 -1.5302
 2751SOL     OW 8071   2.866   3.593   0.133  0.2307 -0.4855  0.0322
 2751SOL    HW1 8072   2.788   3.622   0.188 -0.9699 -1.1269 -1.2660
 2751SOL    HW2 8073   2.834   3.539   0.055  2.1533 -2.7423  0.7025
 2752SOL     OW 8074   1.979   2.670   3.092 -0.1646 -0.4983 -0.8641
 2752SOL    HW1 8075   2.032   2.743   3.134  1.0335 -2.4461  1.1979
 2752SOL    HW2 8076   1.881   2.688   3.105  0.1437  0.1293  0.7265
 2753SOL     OW 8077   3.429   3.658   3.732  0.4828 -0.3196  0.3684
 2753SOL    HW1 8078   3.433   3.679   3.830  1.3181 -1.4718  0.6094
 2753SOL    HW2 8079   3.379   3.730   3.684 -0.7163 -0.1774  1.7593
 2754SOL     OW 8080   3.134   2.271   4.926 -0.2638 -0.0651  0.5876
 2754SOL    HW1 8081   3.139   2.325   5.010 -1.3923  0.1978  0.5004
 2754SOL    HW2 8082   3.086   2.323   4.856 -2.0928 -1.4289  0.7407
 2755SOL     OW 8083   3.432   4.136   4.003 -0.1328  0.4096  0.2193
 2755SOL    HW1 8084   3.358   4.169   3.945 -0.5987 -1.6298 -0.4270
 2755SOL    HW2 8085   3.394   4.081   4.077  0.6386  0.7701  0.8972
 2756SOL     OW 8086   3.610   3.597   0.488 -0.2429 -0.0171 -0.0543
 2756SOL    HW1 8087   3.605   3.497   0.483  0.8367 -0.1098  0.5358
 2756SOL    HW2 8088   3.699   3.628   0.457 -0.6518  0.7964 -0.4538
 2757SOL     OW 8089   0.693   3.175   4.417 -0.1152  0.3705  0.2229
 2757SOL    HW1 8090   0.703   3.263   4.464 -1.3344  0.8025 -0.2643
 2757SOL    HW2 8091   0.772   3.160   4.358 -0.0175  1.2910  0.0956
 2758SOL     OW 8092   3.653   2.243   4.438 -0.2216 -0.1789  0.1394
 2758SOL    HW1 8093   3.640   2.342   4.431  0.9717  0.1829  2.2542
 2758SOL    HW2 8094   3.645   2.202   4.347  0.1987  1.9657 -0.9287
 2759SOL     OW 8095   2.586   4.742   4.653 -0.0954 -0.0424 -0.2033
 2759SOL    HW1 8096   2.627   4.685   4.725 -0.3207 -0.5541 -0.4803
 2759SOL    HW2 8097   2.659   4.783   4.597  0.2069  1.9934  1.5169
 2760SOL     OW 8098   1.343   3.235   5.060 -0.5746 -0.0117  0.0236
 2760SOL    HW1 8099   1.379   3.322   5.027  0.3320 -0.5435 -0.4473
 2760SOL    HW2 8100   1.389   3.160   5.011 -1.1623 -0.7529  0.5924
 2761SOL     OW 8101   2.609   3.694   3.305 -0.0138 -0.0132  0.3353
 2761SOL    HW1 8102   2.675   3.621   3.319  0.1287 -0.0711 -0.5976
 2761SOL    HW2 8103   2.518   3.663   3.334  0.1089 -0.4328  0.2711
 2762SOL     OW 8104   2.910   3.267   4.860  0.0452  0.3935  0.2395
 2762SOL    HW1 8105   2.991   3.266   4.920 -0.1704  1.7015  0.5689
 2762SOL    HW2 8106   2.844   3.334   4.894 -1.3354 -0.8592  0.1429
 2763SOL     OW 8107   3.440   2.767   1.017 -0.6443  0.5101  0.0082
 2763SOL    HW1 8108   3.390   2.732   1.096 -2.5902 -0.2689 -1.5039
 2763SOL    HW2 8109   3.432   2.703   0.941  1.7745  0.8882 -0.6771
 2764SOL     OW 8110   2.792   1.572   3.780 -0.4925  0.1043 -0.2690
 2764SOL    HW1 8111   2.832   1.487   3.745  0.7933  1.0729 -1.2258
 2764SOL    HW2 8112   2.854   1.614   3.846 -1.0578  0.3762  0.0955
 2765SOL     OW 8113   1.980   3.504   4.529 -0.2336 -0.1603  0.0992
 2765SOL    HW1 8114   1.926   3.500   4.613  1.0645  1.1828  1.0519
 2765SOL    HW2 8115   2.077   3.490   4.551  0.0975 -0.1641 -1.2444
 2766SOL     OW 8116   2.587   1.667   0.036  0.4337 -0.1151  0.4808
 2766SOL    HW1 8117   2.625   1.648  -0.054 -0.6052  1.1857 -0.2887
 2766SOL    HW2 8118   2.487   1.663   0.031  0.2411  2.3200  0.9300
 2767SOL     OW 8119   3.021   2.498   3.941  0.3349  0.1704 -0.2234
 2767SOL    HW1 8120   2.978   2.408   3.942 -1.1600  0.8655  0.5566
 2767SOL    HW2 8121   3.067   2.513   4.029  1.5580 -0.2527 -0.7650
 2768SOL     OW 8122   3.330   3.901   3.353 -0.5042 -0.2517  0.9112
 2768SOL    HW1 8123   3.284   3.850   3.280 -1.7165  0.1984  1.3388
 2768SOL    HW2 8124   3.369   3.985   3.316  1.1085 -1.2195  0.2936
 2769SOL     OW 8125   3.468   2.826   3.382 -0.2455 -0.0992  0.4230
 2769SOL    HW1 8126   3.508   2.777   3.304  1.0872 -1.4244  1.8814
 2769SOL    HW2 8127   3.392   2.773   3.419 -1.2267  0.7877 -0.2499
 2770SOL     OW 8128   3.084   1.835   5.016  0.3969 -0.0898  0.6797
 2770SOL    HW1 8129   3.053   1.873   5.104  0.3083 -1.1147  1.1028
 2770SOL    HW2 8130   3.167   1.782   5.030 -0.5965 -1.7610  0.4831
 2771SOL     OW 8131   1.711   2.662   4.859 -0.1809  0.3046 -0.3764
 2771SOL    HW1 8132   1.666   2.598   4.921 -0.2518  0.2841 -0.4501
 2771SOL    HW2 8133   1.689   2.639   4.764  0.3363  0.0241 -0.4330
 2772SOL     OW 8134   3.474   2.259   4.662 -0.1771  0.1353  0.3373
 2772SOL    HW1 8135   3.468   2.355   4.688  0.1228 -0.5928  3.5568
 2772SOL    HW2 8136   3.554   2.245   4.604 -1.6462  2.1539 -2.3492
 2773SOL     OW 8137   2.207   4.699   0.059 -0.0153  0.2618  0.3055
 2773SOL    HW1 8138   2.135   4.641   0.022 -0.4094  0.5923  0.5377
 2773SOL    HW2 8139   2.175   4.742   0.143  0.0425  1.2645 -0.1582
 2774SOL     OW 8140   1.718   2.524   3.729 -0.1106 -0.2676 -0.4030
 2774SOL    HW1 8141   1.774   2.530   3.646  1.6957 -1.1428  0.6793
 2774SOL    HW2 8142   1.674   2.434   3.733  3.3475 -2.1221  1.5583
 2775SOL     OW 8143   1.786   1.663   4.311  0.1903  0.4915 -0.1515
 2775SOL    HW1 8144   1.773   1.645   4.213  0.1446  0.5332 -0.1525
 2775SOL    HW2 8145   1.884   1.677   4.329  0.1531  0.9158 -0.2643
 2776SOL     OW 8146   2.967   2.985   4.463 -0.1999  0.3051  0.3094
 2776SOL    HW1 8147   3.029   2.991   4.385  0.2031  1.4688  0.6932
 2776SOL    HW2 8148   2.976   3.068   4.519 -2.1529  0.5475  0.3353
 2777SOL     OW 8149   3.724   3.549   2.657  0.4990  0.0809 -0.0936
 2777SOL    HW1 8150   3.677   3.638   2.657  0.3979  0.0642 -1.7209
 2777SOL    HW2 8151   3.659   3.477   2.635  1.1654  0.0243 -2.0829
 2778SOL     OW 8152   2.584   4.058   4.999  0.2208  0.1721  0.4589
 2778SOL    HW1 8153   2.612   3.987   5.064  3.7690  0.1711 -0.8678
 2778SOL    HW2 8154   2.605   4.148   5.038  1.9539  0.1841 -0.4140
 2779SOL     OW 8155   3.586   2.335   0.254 -0.1938 -0.4310 -0.0600
 2779SOL    HW1 8156   3.561   2.429   0.276  3.1569  0.5590  0.1240
 2779SOL    HW2 8157   3.519   2.296   0.191 -1.5165  2.1899 -0.4051
 2780SOL     OW 8158   1.928   2.120   4.367  0.0069 -0.5506  0.2666
 2780SOL    HW1 8159   1.829   2.128   4.377  0.0993 -1.8366  3.2119
 2780SOL    HW2 8160   1.962   2.197   4.313 -2.3558  1.0998  0.9552
 2781SOL     OW 8161   3.334   3.159   3.994  0.0310 -0.2865 -0.5759
 2781SOL    HW1 8162   3.397   3.084   4.015  1.5864  0.6629 -1.6186
 2781SOL    HW2 8163   3.374   3.246   4.024 -0.5665  0.3946 -1.6723
 2782SOL     OW 8164   2.840   2.799   0.121  0.3171  0.3404  0.5087
 2782SOL    HW1 8165   2.759   2.739   0.119  0.6829 -0.2443  1.9693
 2782SOL    HW2 8166   2.810   2.893   0.138 -0.2676  0.6736 -1.8653
 2783SOL     OW 8167   2.869   3.098   3.396 -0.0791 -0.0910  0.0410
 2783SOL    HW1 8168   2.882   3.045   3.480 -2.6615  0.3560  0.8158
 2783SOL    HW2 8169   2.877   3.038   3.317 -1.1076 -1.2750  0.8094
 2784SOL     OW 8170   2.965   3.674   4.291  0.2658  0.5082  0.2715
 2784SOL    HW1 8171   2.902   3.751   4.302  0.3502  0.6525 -0.2369
 2784SOL    HW2 8172   2.944   3.626   4.206  0.9640  0.6761  0.0018
 2785SOL     OW 8173   2.061   3.090   4.914  0.1314 -0.1825  0.6997
 2785SOL    HW1 8174   2.064   3.004   4.862  0.3768  0.2179  0.0471
 2785SOL    HW2 8175   2.153   3.127   4.922  0.1861 -0.5312  1.9306
 2786SOL     OW 8176   3.243   3.058   0.577  0.0004 -0.0522  0.3760
 2786SOL    HW1 8177   3.149   3.088   0.593 -0.4197  1.2755 -3.4641
 2786SOL    HW2 8178   3.302   3.138   0.569  1.2577 -0.8348  1.4565
 2787SOL     OW 8179   3.319   2.879   0.018 -0.0560 -0.0069 -0.3202
 2787SOL    HW1 8180   3.260   2.801  -0.005 -0.7036  0.5665 -0.6443
 2787SOL    HW2 8181   3.298   2.911   0.110  1.0370 -0.9465  0.2773
 2788SOL     OW 8182   1.504   3.573   3.949  0.2777  0.0744 -0.4449
 2788SOL    HW1 8183   1.414   3.567   3.906  0.9403  2.2980 -2.2706
 2788SOL    HW2 8184   1.496   3.623   4.036 -0.0782  1.4933 -1.2672
 2789SOL     OW 8185   4.109   2.086   1.292 -0.0359 -0.6079  0.1804
 2789SOL    HW1 8186   4.023   2.059   1.337 -0.0705  1.0803  1.1995
 2789SOL    HW2 8187   4.099   2.178   1.254  1.7069  0.1704  1.4844
 2790SOL     OW 8188   2.897   2.924   3.183 -0.0276 -0.0755  0.4968
 2790SOL    HW1 8189   2.917   2.840   3.233 -1.0855 -0.3053  0.5537
 2790SOL    HW2 8190   2.944   2.922   3.095 -0.6102 -1.0550  0.1944
 2791SOL     OW 8191   1.662   3.198   0.021  0.7614 -0.8452 -0.0189
 2791SOL    HW1 8192   1.746   3.145   0.008  0.2164 -1.6330 -0.3402
 2791SOL    HW2 8193   1.599   3.147   0.079 -0.4382 -1.3096 -1.6841
 2792SOL     OW 8194   2.281   2.626   0.087 -0.0757 -0.1325 -0.1095
 2792SOL    HW1 8195   2.190   2.588   0.071 -0.3638  0.4439  0.1454
 2792SOL    HW2 8196   2.279   2.686   0.167  1.0483 -1.9484  1.4044
 2793SOL     OW 8197   0.098   3.222   0.726  0.4316  0.6807  0.0210
 2793SOL    HW1 8198   0.147   3.136   0.740  1.1048  1.1725  0.7169
 2793SOL    HW2 8199   0.052   3.219   0.637  1.1083 -0.0839 -0.3192
 2794SOL     OW 8200   2.697   1.908   0.048  0.1347  0.0523  0.3309
 2794SOL    HW1 8201   2.660   1.825   0.006  0.0409 -0.1477  0.8028
 2794SOL    HW2 8202   2.689   1.984  -0.016  0.5351 -0.3779 -0.2383
 2795SOL     OW 8203   3.496   2.908   4.305 -0.2034 -1.1845  0.4606
 2795SOL    HW1 8204   3.453   2.818   4.315  2.7853 -2.7255  0.6593
 2795SOL    HW2 8205   3.506   2.930   4.208 -3.8755  0.6108  0.3180
 2796SOL     OW 8206   2.156   2.443   4.851  0.0872 -0.0961  1.1770
 2796SOL    HW1 8207   2.074   2.500   4.838  0.8910  1.1579  1.4311
 2796SOL    HW2 8208   2.144   2.386   4.932 -1.6023 -1.9029 -0.2560
 2797SOL     OW 8209   2.753   2.061   0.903  0.5831  0.4842  0.4800
 2797SOL    HW1 8210   2.841   2.081   0.945  0.9184  1.4163 -0.6196
 2797SOL    HW2 8211   2.684   2.123   0.939  0.6186  0.5075  0.5075
 2798SOL     OW 8212   3.157   2.318   0.510  0.5617 -0.1265 -0.0537
 2798SOL    HW1 8213   3.142   2.372   0.593 -0.4119  0.3860 -0.5493
 2798SOL    HW2 8214   3.098   2.237   0.512 -0.5043  0.5988 -0.8570
 2799SOL     OW 8215   2.504   3.544   2.422  0.3411 -0.9149  0.1194
 2799SOL    HW1 8216   2.529   3.637   2.447 -0.6074 -0.3215 -1.0006
 2799SOL    HW2 8217   2.569   3.509   2.354  1.1450 -1.3785  1.1058
 2800SOL     OW 8218   2.665   3.302   4.052 -0.2097  0.1218 -0.0370
 2800SOL    HW1 8219   2.570   3.321   4.025  0.2159  0.9377 -1.0460
 2800SOL    HW2 8220   2.666   3.243   4.132 -1.5696 -0.1522 -0.2013
 2801SOL     OW 8221   1.000   0.062   4.901  0.3029  0.4855  0.0367
 2801SOL    HW1 8222   1.050   0.147   4.918  0.5203  0.4935 -0.6207
 2801SOL    HW2 8223   1.065  -0.013   4.885  0.1577 -0.1573  2.0992
 2802SOL     OW 8224   1.063   3.638   4.601  0.1862  0.0650 -0.2166
 2802SOL    HW1 8225   0.993   3.621   4.533  0.0472 -2.6240  0.4684
 2802SOL    HW2 8226   1.021   3.647   4.691  0.5308  1.4569 -0.1718
 2803SOL     OW 8227   1.750   3.609   0.308  0.0399 -0.2143 -0.3122
 2803SOL    HW1 8228   1.661   3.634   0.271 -0.4742 -2.1877 -0.5301
 2803SOL    HW2 8229   1.738   3.566   0.397  0.7632 -0.6463 -0.4126
 2804SOL     OW 8230   2.969   0.377   2.009  0.5394 -0.4314  0.2311
 2804SOL    HW1 8231   3.000   0.291   2.050  1.5350 -0.0389  0.3390
 2804SOL    HW2 8232   3.020   0.453   2.050  0.9335  0.0560 -1.1063
 2805SOL     OW 8233   3.636   0.175   0.798 -0.2841  0.2886 -0.2789
 2805SOL    HW1 8234   3.537   0.169   0.786 -0.1717 -0.9015 -0.7528
 2805SOL    HW2 8235   3.661   0.141   0.888 -0.1751 -1.1360 -0.8113
 2806SOL     OW 8236   4.455   4.438   0.344  0.4987  0.1882 -0.1121
 2806SOL    HW1 8237   4.428   4.342   0.345  0.8057  0.0121 -2.3773
 2806SOL    HW2 8238   4.542   4.447   0.295  0.4807  1.6279  0.0846
 2807SOL     OW 8239   5.084   4.472   0.459 -0.0384 -0.0347  0.1486
 2807SOL    HW1 8240   4.992   4.438   0.476 -0.0627  0.2414  0.5955
 2807SOL    HW2 8241   5.103   4.472   0.361 -1.0816  1.3899 -0.0743
 2808SOL     OW 8242   3.336   4.827   1.108  0.2517 -0.3152  0.0637
 2808SOL    HW1 8243   3.296   4.754   1.163 -1.5489  1.0885  0.7291
 2808SOL    HW2 8244   3.270   4.857   1.039  0.7151  1.0845  0.1971
 2809SOL     OW 8245   4.149   4.583   2.097  0.4835 -0.0756 -0.1209
 2809SOL    HW1 8246   4.065   4.588   2.151  0.0832 -0.6000 -0.6794
 2809SOL    HW2 8247   4.157   4.493   2.055 -0.3575  0.9511 -2.7144
 2810SOL     OW 8248   3.443   0.494   0.954  0.2820  0.4674  0.1105
 2810SOL    HW1 8249   3.477   0.471   0.863  0.6908  1.9151 -0.1419
 2810SOL    HW2 8250   3.343   0.493   0.954  0.2050 -3.2485  0.7005
 2811SOL     OW 8251   3.538   4.244   2.589  0.2897 -0.4316  0.1204
 2811SOL    HW1 8252   3.636   4.249   2.570  0.4204  0.1590  0.9113
 2811SOL    HW2 8253   3.491   4.200   2.512  1.2407 -1.2062 -0.0397
 2812SOL     OW 8254   3.364   0.118   0.852 -0.1417 -0.7880  0.3385
 2812SOL    HW1 8255   3.340   0.134   0.947  0.4649  1.9066  0.1144
 2812SOL    HW2 8256   3.288   0.147   0.793 -0.3356 -2.0078 -0.0465
 2813SOL     OW 8257   2.267   4.166   1.088 -0.0066  0.3969  0.2127
 2813SOL    HW1 8258   2.363   4.139   1.098  0.2318  0.9668 -0.4502
 2813SOL    HW2 8259   2.233   4.203   1.175  0.3044  0.0056  0.5061
 2814SOL     OW 8260   3.778   4.730   1.990  0.6214  0.3198  0.1216
 2814SOL    HW1 8261   3.812   4.646   2.032 -0.5574 -0.5291 -0.5461
 2814SOL    HW2 8262   3.810   4.809   2.041  1.3111 -0.5684  1.0857
 2815SOL     OW 8263   2.261   4.515   1.285  0.2489 -0.7990 -0.0816
 2815SOL    HW1 8264   2.260   4.527   1.186 -0.3270  0.4887  0.0552
 2815SOL    HW2 8265   2.190   4.572   1.326 -0.5546 -2.4741  0.9729
 2816SOL     OW 8266   3.361   4.908   1.841 -0.2155 -0.0179 -0.1433
 2816SOL    HW1 8267   3.315   4.886   1.755 -2.7188  0.2207  1.0220
 2816SOL    HW2 8268   3.420   4.832   1.868 -1.7021 -1.4033 -0.6278
 2817SOL     OW 8269   3.157   2.610   1.035  0.8220 -0.0452  0.2055
 2817SOL    HW1 8270   3.224   2.535   1.034  0.9542  0.0515  0.9337
 2817SOL    HW2 8271   3.182   2.675   1.107 -0.1548 -0.0953  0.5992
 2818SOL     OW 8272   2.045   4.023   1.059 -0.2086 -0.3860 -0.4802
 2818SOL    HW1 8273   2.130   4.074   1.070  0.4804 -1.4804 -0.6426
 2818SOL    HW2 8274   2.007   4.003   1.149 -0.5095  0.4242 -0.4135
 2819SOL     OW 8275   4.843   3.303   0.581 -0.3152 -0.0143  0.1411
 2819SOL    HW1 8276   4.837   3.280   0.678 -1.5478 -0.2771  0.0157
 2819SOL    HW2 8277   4.923   3.258   0.541  0.7261  0.8039  1.2099
 2820SOL     OW 8278   4.173   3.252   0.312 -0.0703 -0.6977 -0.2464
 2820SOL    HW1 8279   4.219   3.282   0.395 -0.0218 -0.0724 -0.4917
 2820SOL    HW2 8280   4.241   3.237   0.240 -0.1622 -0.7367 -0.3257
 2821SOL     OW 8281   2.812   4.815   2.494  0.1472 -0.4171  0.6354
 2821SOL    HW1 8282   2.911   4.816   2.507  0.0325  1.5769  1.6717
 2821SOL    HW2 8283   2.766   4.822   2.583 -0.8565  1.6044  0.0150
 2822SOL     OW 8284   3.810   4.525   1.287 -0.8106 -0.2218  0.4790
 2822SOL    HW1 8285   3.747   4.520   1.210  1.1923 -0.2575 -1.2610
 2822SOL    HW2 8286   3.857   4.437   1.298 -0.6695 -0.0464  1.3962
 2823SOL     OW 8287   2.827   3.959   0.192 -0.8893  0.0867 -0.5962
 2823SOL    HW1 8288   2.871   3.961   0.102  0.3550 -0.8981 -0.0335
 2823SOL    HW2 8289   2.730   3.981   0.181 -0.7937 -0.1268 -2.1907
 2824SOL     OW 8290   2.856   4.887   2.150  0.5582 -0.0263 -0.5813
 2824SOL    HW1 8291   2.832   4.890   2.053  0.5271  0.2651 -0.5656
 2824SOL    HW2 8292   2.772   4.879   2.205  0.4750  1.0857 -0.5228
 2825SOL     OW 8293   3.189   4.867   0.865 -0.2483 -0.2232  0.1098
 2825SOL    HW1 8294   3.121   4.793   0.860 -0.1548 -0.2916 -0.2302
 2825SOL    HW2 8295   3.161   4.941   0.804 -0.8146  0.4324  1.1295
 2826SOL     OW 8296   2.614   4.450   0.745 -0.3631 -0.4276 -0.7209
 2826SOL    HW1 8297   2.653   4.542   0.745 -2.0098  0.3173 -0.7128
 2826SOL    HW2 8298   2.514   4.457   0.752 -0.5557 -2.2025 -1.3104
 2827SOL     OW 8299   4.544   5.069   0.867 -0.1008 -0.0768 -0.0649
 2827SOL    HW1 8300   4.621   5.066   0.803  0.1923 -0.1735  0.2822
 2827SOL    HW2 8301   4.573   5.116   0.951 -0.5318  0.2055 -0.0700
 2828SOL     OW 8302   3.970   4.472   0.758  0.3898 -0.2630  0.3988
 2828SOL    HW1 8303   3.949   4.548   0.820  1.6862  0.4481 -0.0051
 2828SOL    HW2 8304   3.932   4.387   0.796  0.2484  0.3252  1.6337
 2829SOL     OW 8305   3.133   3.898   1.143 -0.0910 -0.7214 -0.2115
 2829SOL    HW1 8306   3.051   3.912   1.198 -1.7933 -0.1943 -2.7071
 2829SOL    HW2 8307   3.161   3.984   1.101  1.0353 -1.1495 -0.3867
 2830SOL     OW 8308   3.109   3.275   5.060  0.6389  0.2671 -0.2855
 2830SOL    HW1 8309   3.110   3.312   5.153  1.2779  1.7349 -0.8350
 2830SOL    HW2 8310   3.176   3.324   5.004  0.7748 -1.0683 -1.3512
 2831SOL     OW 8311   4.262   1.607   1.196  0.1819 -0.9532  0.1643
 2831SOL    HW1 8312   4.245   1.636   1.102  3.1572 -2.4938 -0.9876
 2831SOL    HW2 8313   4.267   1.508   1.200  2.5716 -0.8606  1.3710
 2832SOL     OW 8314   2.551   4.191   1.312  0.0892  0.2286  0.0021
 2832SOL    HW1 8315   2.490   4.113   1.325 -0.1109  0.5988  1.5448
 2832SOL    HW2 8316   2.512   4.272   1.357  0.6800  1.0278 -0.8685
 2833SOL     OW 8317   3.026   3.834   1.527  0.0944  0.7163  0.5425
 2833SOL    HW1 8318   2.956   3.802   1.591  1.3188 -1.1061  1.0620
 2833SOL    HW2 8319   2.983   3.877   1.448 -1.5169  1.3553  1.7378
 2834SOL     OW 8320   3.192   4.825   1.634 -0.9435  0.1959 -0.0448
 2834SOL    HW1 8321   3.173   4.754   1.566  0.1157  0.4339 -0.6040
 2834SOL    HW2 8322   3.142   4.908   1.610  1.3811  1.1432 -2.0714
 2835SOL     OW 8323   1.498   2.504   1.199 -0.6572 -0.4221 -0.0707
 2835SOL    HW1 8324   1.479   2.482   1.104  1.3465  0.6225 -0.7580
 2835SOL    HW2 8325   1.490   2.421   1.255  1.7552 -1.8986 -1.7551
 2836SOL     OW 8326   2.872   5.000   0.520  0.0491 -0.8251  0.3724
 2836SOL    HW1 8327   2.890   4.995   0.421 -1.9457  1.2231 -0.1729
 2836SOL    HW2 8328   2.784   4.957   0.539 -0.1230 -0.1561  1.0890
 2837SOL     OW 8329   4.634   3.983   0.646 -0.2574  0.2636 -0.2436
 2837SOL    HW1 8330   4.636   3.960   0.549 -1.1729  0.9408 -0.4313
 2837SOL    HW2 8331   4.556   3.938   0.690  0.4003 -0.3908  0.2828
 2838SOL     OW 8332   2.784   4.914   4.498  0.4391 -0.1976  1.0945
 2838SOL    HW1 8333   2.829   4.959   4.575  1.2604  1.1545 -0.1237
 2838SOL    HW2 8334   2.845   4.915   4.419 -0.0406 -2.3320  0.6346
 2839SOL     OW 8335   2.943   4.061   1.853  0.3081  0.2093  0.3563
 2839SOL    HW1 8336   3.000   3.996   1.902 -0.1029  1.8363  3.2123
 2839SOL    HW2 8337   2.850   4.026   1.848  0.6799 -0.6709 -0.7383
 2840SOL     OW 8338   4.358   4.041   1.075 -0.1516  0.3060  0.4576
 2840SOL    HW1 8339   4.454   4.020   1.055 -0.0244  0.2066  1.1271
 2840SOL    HW2 8340   4.353   4.130   1.121 -0.2917 -0.0734  1.1863
 2841SOL     OW 8341   1.793   3.392   1.430  0.7435 -0.4083  0.1400
 2841SOL    HW1 8342   1.881   3.432   1.456  0.6209 -1.7022  2.9815
 2841SOL    HW2 8343   1.729   3.465   1.405  2.1500  0.6781 -0.3921
 2842SOL     OW 8344   3.640   3.340   0.474  0.1061  0.1886  0.6759
 2842SOL    HW1 8345   3.718   3.325   0.414  0.7378  0.8850  1.2889
 2842SOL    HW2 8346   3.652   3.287   0.558  0.0813  0.5445  0.9059
 2843SOL     OW 8347   2.252   3.170   2.589  0.2701 -0.4702  0.3829
 2843SOL    HW1 8348   2.320   3.099   2.603 -0.4310 -1.0919  0.6943
 2843SOL    HW2 8349   2.296   3.260   2.591  1.1974 -0.9003 -0.2379
 2844SOL     OW 8350   3.446   4.892   4.727  0.2775  0.1244 -0.0383
 2844SOL    HW1 8351   3.389   4.942   4.792 -1.6589 -0.2295 -1.3770
 2844SOL    HW2 8352   3.509   4.833   4.777  0.3538  1.4294  1.5157
 2845SOL     OW 8353   3.585   4.026   4.341  0.1160  0.3868  0.5066
 2845SOL    HW1 8354   3.621   4.017   4.434  1.9295  1.6258 -0.0320
 2845SOL    HW2 8355   3.538   4.113   4.331 -1.0509 -0.2182  0.5419
 2846SOL     OW 8356   2.187   3.908   0.744 -0.1961 -0.3009 -0.2684
 2846SOL    HW1 8357   2.091   3.881   0.752 -0.2292 -0.9049 -2.2724
 2846SOL    HW2 8358   2.223   3.879   0.656  1.6019  0.6990  0.0833
 2847SOL     OW 8359   4.416   3.861   0.805 -0.3799  0.3765  0.0014
 2847SOL    HW1 8360   4.492   3.818   0.854 -1.0807 -0.8007  0.0818
 2847SOL    HW2 8361   4.336   3.863   0.864 -0.9895 -0.2641 -0.7869
 2848SOL     OW 8362   2.776   2.880   2.063 -0.0606  0.4159 -0.3319
 2848SOL    HW1 8363   2.726   2.800   2.097  1.2280 -0.9727 -1.5672
 2848SOL    HW2 8364   2.754   2.959   2.120  0.3931 -1.2837  2.4301
 2849SOL     OW 8365   4.279   4.607   0.993 -0.5550 -0.2666  0.5298
 2849SOL    HW1 8366   4.329   4.672   0.936  0.6991 -0.5841  1.2272
 2849SOL    HW2 8367   4.181   4.622   0.982 -0.3576 -0.0658 -1.4016
 2850SOL     OW 8368   3.661   3.783   0.996 -0.5423 -0.6032  0.1657
 2850SOL    HW1 8369   3.641   3.881   0.993 -0.4790 -0.6033 -1.6476
 2850SOL    HW2 8370   3.712   3.762   1.079  1.1154  1.2645 -0.2831
 2851SOL     OW 8371   3.039   4.470   0.627 -0.3616 -0.2776 -0.1984
 2851SOL    HW1 8372   3.126   4.466   0.577 -1.0999  1.7328 -1.7913
 2851SOL    HW2 8373   2.991   4.383   0.618 -0.1451 -0.2093 -2.4785
 2852SOL     OW 8374   2.618   3.496   0.698 -0.3450 -0.0970  0.1555
 2852SOL    HW1 8375   2.589   3.473   0.791  1.0400 -1.6874  0.2404
 2852SOL    HW2 8376   2.537   3.510   0.641 -1.2268 -0.1654  1.3400
 2853SOL     OW 8377   3.115   0.448   0.399  0.4042 -0.4800 -0.6433
 2853SOL    HW1 8378   3.091   0.386   0.474 -1.4621 -0.1609 -0.9282
 2853SOL    HW2 8379   3.121   0.397   0.313 -2.1843 -0.2005 -1.0683
 2854SOL     OW 8380   2.065   3.748   1.586 -0.4404  0.3255 -0.1769
 2854SOL    HW1 8381   2.142   3.699   1.627 -0.0940  0.6272 -0.4562
 2854SOL    HW2 8382   2.064   3.732   1.487  1.0518  2.6627 -0.6540
 2855SOL     OW 8383   4.078   2.988   0.278 -0.0494  0.0205  0.5110
 2855SOL    HW1 8384   4.121   3.078   0.285 -0.8868  0.3172  2.4431
 2855SOL    HW2 8385   4.149   2.918   0.272  0.6277  0.7336 -0.0767
 2856SOL     OW 8386   3.028   4.188   1.629  0.8143 -0.2884 -0.1319
 2856SOL    HW1 8387   3.006   4.148   1.718  0.1261 -0.7466 -0.4965
 2856SOL    HW2 8388   2.955   4.167   1.565 -0.9325  3.7021  0.2541
 2857SOL     OW 8389   3.452   1.119   0.627  0.3465  0.5398 -0.0545
 2857SOL    HW1 8390   3.487   1.131   0.534  0.9397  0.4565  0.1552
 2857SOL    HW2 8391   3.399   1.034   0.632  0.2502  0.5817 -0.3299
 2858SOL     OW 8392   3.296   4.233   0.650 -0.1217  0.1058  0.3718
 2858SOL    HW1 8393   3.281   4.327   0.621 -1.3085 -0.6738 -1.7168
 2858SOL    HW2 8394   3.214   4.178   0.632  1.4585 -1.9426 -1.1159
 2859SOL     OW 8395   3.225   4.050   0.300 -0.2059 -0.2755  0.5573
 2859SOL    HW1 8396   3.245   4.137   0.345  0.4358 -0.0749 -0.0991
 2859SOL    HW2 8397   3.307   3.992   0.302 -0.9018 -1.2851  1.8808
 2860SOL     OW 8398   2.316   3.373   2.075  0.2059  1.0215  0.1195
 2860SOL    HW1 8399   2.272   3.324   1.999  2.4992  0.9083 -1.2331
 2860SOL    HW2 8400   2.300   3.323   2.160  0.6470 -0.9230 -0.8802
 2861SOL     OW 8401   2.038   3.245   1.611 -0.3334 -0.5337  0.8451
 2861SOL    HW1 8402   1.947   3.247   1.654 -0.4222  0.1558  0.6397
 2861SOL    HW2 8403   2.051   3.329   1.557  0.3913 -0.6684  0.8022
 2862SOL     OW 8404   4.838   4.538   5.030 -0.0221  0.1520 -0.6621
 2862SOL    HW1 8405   4.934   4.566   5.035  0.0246  0.0976 -1.1894
 2862SOL    HW2 8406   4.832   4.439   5.018 -0.1419  0.1659 -0.7224
 2863SOL     OW 8407   2.858   3.961   1.281  0.1133 -0.8863 -0.0105
 2863SOL    HW1 8408   2.781   3.916   1.327  1.2725 -3.2133 -0.2166
 2863SOL    HW2 8409   2.838   3.970   1.184 -1.4675  2.1386  0.4899
 2864SOL     OW 8410   2.458   0.223   0.467 -0.4691  0.0299 -0.7817
 2864SOL    HW1 8411   2.387   0.241   0.535 -0.1567 -0.8106 -0.2255
 2864SOL    HW2 8412   2.468   0.125   0.453 -0.6065  0.1820 -2.1362
 2865SOL     OW 8413   4.390   3.697   0.592 -0.2471 -0.4659 -0.2504
 2865SOL    HW1 8414   4.380   3.770   0.660  0.2761 -0.3847 -0.2577
 2865SOL    HW2 8415   4.487   3.686   0.569 -0.4516 -0.2657 -1.2381
 2866SOL     OW 8416   3.962   0.086   4.421  0.0933 -0.3274 -0.3154
 2866SOL    HW1 8417   4.023   0.164   4.416  0.9626 -0.8740  1.0233
 2866SOL    HW2 8418   3.986   0.020   4.350  1.1625 -0.5764  0.2478
 2867SOL     OW 8419   4.951   4.214   0.100  0.1309  0.2086 -0.1025
 2867SOL    HW1 8420   4.872   4.229   0.041 -0.3498  0.1210  0.5012
 2867SOL    HW2 8421   4.937   4.131   0.154  0.5778  0.2600  0.0990
 2868SOL     OW 8422   2.840   4.610   0.467 -0.1426 -0.1925  0.1586
 2868SOL    HW1 8423   2.790   4.683   0.513  1.3480  0.4957  0.7615
 2868SOL    HW2 8424   2.909   4.573   0.529  1.1189 -0.0652 -1.1282
 2869SOL     OW 8425   2.271   4.173   0.790 -0.0755 -0.0721  0.4849
 2869SOL    HW1 8426   2.261   4.204   0.884  0.7153 -0.8452  0.8435
 2869SOL    HW2 8427   2.207   4.098   0.772 -0.6685  0.4912  0.1999
 2870SOL     OW 8428   4.465   4.358   2.120 -0.3239  0.0110 -0.2359
 2870SOL    HW1 8429   4.388   4.348   2.056 -0.3302  0.8971 -0.3702
 2870SOL    HW2 8430   4.516   4.272   2.123 -0.1195  0.0520 -1.7030
 2871SOL     OW 8431   3.503   0.415   0.439 -0.0835  0.6098  0.3486
 2871SOL    HW1 8432   3.582   0.359   0.462  0.7739  1.8707  0.5293
 2871SOL    HW2 8433   3.454   0.373   0.362  1.6155  0.5937 -0.7614
 2872SOL     OW 8434   2.495   2.898   1.784  0.2849  0.0642  0.0098
 2872SOL    HW1 8435   2.404   2.886   1.745  0.4594 -1.0443 -0.0906
 2872SOL    HW2 8436   2.548   2.814   1.771  1.4740  0.8446 -0.3350
 2873SOL     OW 8437   4.047   4.276   2.216 -0.0255 -0.2433  0.2938
 2873SOL    HW1 8438   3.954   4.240   2.224  0.0663 -0.2818  1.3530
 2873SOL    HW2 8439   4.111   4.214   2.261  0.1280  1.1775  2.1526
 2874SOL     OW 8440   2.673   4.441   0.329 -0.3320 -0.4055 -0.1942
 2874SOL    HW1 8441   2.653   4.466   0.235  0.6648  0.4894 -0.1808
 2874SOL    HW2 8442   2.728   4.512   0.372  0.4565 -1.4736  0.6173
 2875SOL     OW 8443   2.173   4.074   1.506  0.6415  0.0574 -0.5389
 2875SOL    HW1 8444   2.229   4.069   1.589 -1.0802  0.1873  0.6760
 2875SOL    HW2 8445   2.078   4.052   1.528 -0.2613  2.1007 -2.0618
 2876SOL     OW 8446   2.086   3.448   1.421 -0.2548  0.2057 -0.3371
 2876SOL    HW1 8447   2.045   3.524   1.371 -0.7443  0.6278  0.6791
 2876SOL    HW2 8448   2.150   3.399   1.361  1.2453  2.3402 -0.5834
 2877SOL     OW 8449   2.707   0.154   0.679  0.4512  0.3029 -0.2748
 2877SOL    HW1 8450   2.697   0.224   0.608  1.3131 -0.0602 -0.7659
 2877SOL    HW2 8451   2.729   0.067   0.636 -1.8031 -0.5854  0.2220
 2878SOL     OW 8452   2.051   5.041   4.950 -0.0310 -0.1093 -0.6974
 2878SOL    HW1 8453   2.023   5.136   4.935  0.3435  0.1526  0.2110
 2878SOL    HW2 8454   2.130   5.039   5.011 -1.2367 -1.0964  0.8797
 2879SOL     OW 8455   3.615   3.351   0.877  0.3978 -0.5141  0.2168
 2879SOL    HW1 8456   3.713   3.359   0.891  0.3322 -0.8459  0.9014
 2879SOL    HW2 8457   3.569   3.433   0.913  0.3919 -0.5436  0.2774
 2880SOL     OW 8458   3.376   3.759   1.178  0.1942  0.5646  0.5716
 2880SOL    HW1 8459   3.391   3.678   1.121  1.9710  2.0265 -1.2019
 2880SOL    HW2 8460   3.286   3.798   1.158 -0.0869 -0.1746  0.3842
 2881SOL     OW 8461   3.645   4.071   1.754 -0.4648 -0.1311  0.5298
 2881SOL    HW1 8462   3.589   4.023   1.686 -0.7852  1.3548 -0.3037
 2881SOL    HW2 8463   3.739   4.038   1.749 -0.5438 -0.2518 -0.4577
 2882SOL     OW 8464   1.946   2.930   1.808 -0.4805  0.0736 -0.5603
 2882SOL    HW1 8465   1.962   3.015   1.858  1.9947 -0.7835  0.2590
 2882SOL    HW2 8466   1.888   2.870   1.862  0.3691  0.0262  0.3335
 2883SOL     OW 8467   3.390   4.035   1.868 -0.3915  0.2533 -0.0131
 2883SOL    HW1 8468   3.334   3.990   1.799 -0.1209  0.2655 -0.2407
 2883SOL    HW2 8469   3.481   4.054   1.831  0.3788 -1.3695  0.9155
 2884SOL     OW 8470   3.477   5.030   1.225 -0.2732 -0.5886  0.5000
 2884SOL    HW1 8471   3.436   4.949   1.183  1.1864 -0.9664 -0.2694
 2884SOL    HW2 8472   3.417   5.109   1.213 -0.9860 -1.2206 -0.1558
 2885SOL     OW 8473   3.467   0.532   1.623 -0.4830  0.1318  0.5090
 2885SOL    HW1 8474   3.559   0.528   1.662 -0.9323 -1.6067  1.5109
 2885SOL    HW2 8475   3.467   0.593   1.543  2.2940 -2.1740 -1.4573
 2886SOL     OW 8476   2.670   4.865   4.085  0.1733 -0.8682 -0.3392
 2886SOL    HW1 8477   2.715   4.776   4.092 -0.9936 -1.6625 -2.0794
 2886SOL    HW2 8478   2.722   4.925   4.025 -0.0734 -1.1015 -0.7907
 2887SOL     OW 8479   1.953   3.633   1.267 -0.2741  0.2837 -0.2250
 2887SOL    HW1 8480   1.879   3.699   1.279  0.9368  1.4907  1.1115
 2887SOL    HW2 8481   2.030   3.678   1.222  0.6331 -0.1423  0.8472
 2888SOL     OW 8482   3.008   3.120   0.724  0.0469  0.3588  0.1604
 2888SOL    HW1 8483   2.934   3.173   0.765 -1.3500 -1.6558  0.3426
 2888SOL    HW2 8484   3.067   3.083   0.796  0.4741  0.8480  0.0733
 2889SOL     OW 8485   3.440   4.920   3.524  0.0884  0.4569 -0.8827
 2889SOL    HW1 8486   3.389   4.834   3.519  1.7779 -0.6717  0.2615
 2889SOL    HW2 8487   3.397   4.980   3.592 -0.8437  0.3448 -1.3597
 2890SOL     OW 8488   2.087   4.671   2.133  0.2356  0.4846 -0.3344
 2890SOL    HW1 8489   2.053   4.578   2.139 -1.0858  0.9952  0.5679
 2890SOL    HW2 8490   2.097   4.709   2.225  0.7380  1.2358 -0.6907
 2891SOL     OW 8491   3.302   3.317   4.834  0.4201  0.1280  0.2351
 2891SOL    HW1 8492   3.391   3.311   4.880  0.8208 -0.5762 -0.5789
 2891SOL    HW2 8493   3.296   3.404   4.785  0.5571  0.2877  0.4991
 2892SOL     OW 8494   3.552   3.164   0.704  0.0646  0.1897  0.3506
 2892SOL    HW1 8495   3.475   3.104   0.726 -1.1701  1.6370  0.1084
 2892SOL    HW2 8496   3.559   3.236   0.773  2.2901 -0.8591  1.3268
 2893SOL     OW 8497   4.623   4.490   0.617 -0.1739 -0.2906 -0.1323
 2893SOL    HW1 8498   4.608   4.582   0.580  0.1236 -0.3489 -0.4014
 2893SOL    HW2 8499   4.539   4.436   0.609 -0.6400  0.2535  0.8906
 2894SOL     OW 8500   2.812   3.907   2.625  0.2462 -0.6638 -0.7297
 2894SOL    HW1 8501   2.849   3.988   2.579 -0.7214  0.7347  0.8091
 2894SOL    HW2 8502   2.840   3.907   2.720 -1.3399 -1.0716 -0.2237
 2895SOL     OW 8503   2.753   3.543   4.729  0.2804  0.2342  0.1255
 2895SOL    HW1 8504   2.829   3.567   4.669 -0.1001  1.3179  0.0547
 2895SOL    HW2 8505   2.702   3.466   4.688  0.4840  0.4491 -0.5542
 2896SOL     OW 8506   3.077   4.311   4.881  0.1387  0.3593 -0.0857
 2896SOL    HW1 8507   3.039   4.393   4.837 -2.0613 -0.6480 -0.1835
 2896SOL    HW2 8508   3.005   4.245   4.896  1.5789 -0.9554  1.4715
 2897SOL     OW 8509   2.448   2.845   1.019 -0.0248 -1.0125 -0.2269
 2897SOL    HW1 8510   2.368   2.792   0.990 -1.0599 -0.0219  0.7328
 2897SOL    HW2 8511   2.455   2.928   0.965  0.9541 -1.5493 -0.9707
 2898SOL     OW 8512   1.421   4.107   4.938 -0.3326  0.1341 -0.3005
 2898SOL    HW1 8513   1.466   4.050   5.007  1.1414  1.5019 -0.0638
 2898SOL    HW2 8514   1.372   4.049   4.874  1.4577 -1.4638 -0.3179
 2899SOL     OW 8515   3.127   4.602   1.841  0.3133 -0.4643 -0.2791
 2899SOL    HW1 8516   3.189   4.525   1.858 -0.7058 -1.5713 -1.3656
 2899SOL    HW2 8517   3.181   4.683   1.818  1.4555 -0.5254  1.8886
 2900SOL     OW 8518   1.442   4.088   1.071  0.0908 -0.4066  0.7561
 2900SOL    HW1 8519   1.406   4.081   1.164  0.8334  1.2327  1.2050
 2900SOL    HW2 8520   1.417   4.006   1.019  1.9217 -2.6671  3.1612
 2901SOL     OW 8521   1.411   4.148   0.304 -0.1268 -0.0149  0.0581
 2901SOL    HW1 8522   1.484   4.165   0.370 -0.2555 -1.0510  0.4889
 2901SOL    HW2 8523   1.370   4.234   0.276 -1.1060  0.3761  2.4943
 2902SOL     OW 8524   3.092   0.159   2.114 -0.0751  0.1197  0.5578
 2902SOL    HW1 8525   3.138   0.078   2.078 -0.1305 -0.3895  1.6030
 2902SOL    HW2 8526   3.027   0.131   2.185 -0.3170  1.0591  0.7143
 2903SOL     OW 8527   3.624   4.973   1.702 -0.4220  0.1567 -0.0464
 2903SOL    HW1 8528   3.537   4.945   1.743 -0.7270  2.9290  1.4074
 2903SOL    HW2 8529   3.607   5.015   1.613 -0.6203  0.9193  0.3457
 2904SOL     OW 8530   4.234   4.485   0.669 -0.4864 -0.3582  0.4692
 2904SOL    HW1 8531   4.284   4.399   0.677 -2.2115 -1.2769  2.3431
 2904SOL    HW2 8532   4.137   4.469   0.688 -1.0446  1.8318 -0.2216
 2905SOL     OW 8533   2.846   4.258   1.001  0.5039 -0.1573 -0.0845
 2905SOL    HW1 8534   2.777   4.308   1.054  0.9928 -0.0162  0.4345
 2905SOL    HW2 8535   2.930   4.251   1.055 -0.4316 -4.1303  1.1621
 2906SOL     OW 8536   4.650   3.711   0.863 -0.7339 -0.5895  0.0513
 2906SOL    HW1 8537   4.741   3.751   0.873 -1.3031  0.4875  1.3411
 2906SOL    HW2 8538   4.649   3.647   0.786  1.0769 -0.5663 -0.0283
 2907SOL     OW 8539   2.748   3.185   1.101 -0.4154  0.7986  0.3268
 2907SOL    HW1 8540   2.685   3.173   1.024  1.2371 -1.2435 -0.7996
 2907SOL    HW2 8541   2.786   3.277   1.099 -2.2421  1.6047  0.2137
 2908SOL     OW 8542   2.073   5.063   1.143  0.2117  0.0299 -0.1950
 2908SOL    HW1 8543   2.131   5.141   1.167  1.4162 -0.6684 -0.7166
 2908SOL    HW2 8544   2.038   5.074   1.051 -1.5668  1.0576  0.5662
 2909SOL     OW 8545   3.101   4.431   0.238  0.0170 -0.0987 -0.4269
 2909SOL    HW1 8546   3.022   4.370   0.239  0.4685 -0.6925 -0.2999
 2909SOL    HW2 8547   3.148   4.427   0.326  0.6342 -0.3503 -0.7617
 2910SOL     OW 8548   2.247   3.495   0.328  0.2020  0.0963  0.2496
 2910SOL    HW1 8549   2.248   3.511   0.229  0.9023 -0.6218  0.1315
 2910SOL    HW2 8550   2.261   3.398   0.347 -0.9292  0.0649  1.0399
 2911SOL     OW 8551   3.169   0.365   4.714  0.3206  0.3251  0.4813
 2911SOL    HW1 8552   3.093   0.305   4.689  0.0277  0.8292  0.1387
 2911SOL    HW2 8553   3.251   0.336   4.665 -0.1603  1.0726 -0.8129
 2912SOL     OW 8554   2.543   4.045   1.064 -0.1054 -0.3432 -0.0192
 2912SOL    HW1 8555   2.565   4.099   0.983  1.3340 -1.7220 -0.5952
 2912SOL    HW2 8556   2.554   4.101   1.146 -1.8841  1.1596 -0.7539
 2913SOL     OW 8557   2.907   3.946   4.970 -0.4159  0.6137  0.5436
 2913SOL    HW1 8558   3.003   3.929   4.946 -1.1651 -0.0683 -2.3639
 2913SOL    HW2 8559   2.881   4.037   4.939 -0.5279  1.1152  2.0557
 2914SOL     OW 8560   2.738   3.140   4.289 -0.6824  0.3222  0.3079
 2914SOL    HW1 8561   2.720   3.044   4.269 -1.6243  0.4784  0.3505
 2914SOL    HW2 8562   2.802   3.147   4.366  1.4607 -0.2588 -1.3516
 2915SOL     OW 8563   3.687   4.096   0.422 -0.4051 -0.5723  0.0006
 2915SOL    HW1 8564   3.695   4.132   0.329 -3.3124  0.1167 -0.0731
 2915SOL    HW2 8565   3.775   4.056   0.450  0.6106 -0.6241 -2.9220
 2916SOL     OW 8566   3.711   0.481   1.736 -0.1650  0.0776 -0.3721
 2916SOL    HW1 8567   3.778   0.500   1.807  1.4921 -1.3058 -1.4959
 2916SOL    HW2 8568   3.687   0.384   1.738 -0.7726  0.2032 -1.1419
 2917SOL     OW 8569   3.919   3.879   4.284 -0.2150 -0.2055  0.2771
 2917SOL    HW1 8570   3.835   3.924   4.254  0.6519  0.0162 -2.0676
 2917SOL    HW2 8571   3.968   3.939   4.347 -0.7887  0.5929 -0.0090
 2918SOL     OW 8572   1.472   3.137   0.365  0.0647 -0.2998 -0.1473
 2918SOL    HW1 8573   1.568   3.152   0.389  0.1649  0.4251 -0.9468
 2918SOL    HW2 8574   1.465   3.059   0.303  0.1278 -0.3905 -0.0411
 2919SOL     OW 8575   2.337   4.887   1.205 -0.8370  0.2397 -0.4040
 2919SOL    HW1 8576   2.239   4.874   1.224  0.0594 -1.1904  4.8694
 2919SOL    HW2 8577   2.368   4.972   1.248  0.9555 -1.7438  2.6110
 2920SOL     OW 8578   2.282   5.025   5.083  0.1078  0.7512  0.6795
 2920SOL    HW1 8579   2.380   5.031   5.067  0.3388  0.7648  1.9947
 2920SOL    HW2 8580   2.262   4.946   5.141 -0.4802  1.5711  1.6312
 2921SOL     OW 8581   3.156   0.587   1.812  0.1411  0.5310  0.0149
 2921SOL    HW1 8582   3.197   0.496   1.806  0.4423  0.6935 -0.5125
 2921SOL    HW2 8583   3.155   0.628   1.721  0.4246  1.2347  0.3226
 2922SOL     OW 8584   4.144   0.113   3.078  0.5710  0.1621 -0.0379
 2922SOL    HW1 8585   4.132   0.089   2.982 -1.6263 -0.8703  0.4225
 2922SOL    HW2 8586   4.175   0.032   3.129 -0.8922 -0.0815  0.5212
 2923SOL     OW 8587   3.246   0.138   1.146 -0.6581 -0.3968  0.2162
 2923SOL    HW1 8588   3.157   0.139   1.102  0.1307  1.7002 -1.4900
 2923SOL    HW2 8589   3.253   0.215   1.209  1.0920  1.6569 -2.3083
 2924SOL     OW 8590   2.869   3.257   1.441 -0.2351 -0.6699 -0.0367
 2924SOL    HW1 8591   2.829   3.199   1.370  1.0780 -0.5180 -0.9431
 2924SOL    HW2 8592   2.957   3.219   1.469  0.8406  1.0174 -0.9167
 2925SOL     OW 8593   2.372   3.954   1.355  0.3148  0.6720 -0.3936
 2925SOL    HW1 8594   2.311   3.998   1.421 -0.9331  0.5936 -1.4549
 2925SOL    HW2 8595   2.345   3.859   1.343  1.6603  0.1740  0.2853
 2926SOL     OW 8596   4.598   0.135   1.056  0.1273  0.0723  0.0894
 2926SOL    HW1 8597   4.579   0.233   1.064  0.5639  0.3367 -1.6982
 2926SOL    HW2 8598   4.665   0.109   1.126 -0.1303  0.9954  0.7067
 2927SOL     OW 8599   3.475   3.511   1.621 -0.1100  0.5046 -0.5432
 2927SOL    HW1 8600   3.532   3.453   1.680 -1.0468 -1.0993 -1.1729
 2927SOL    HW2 8601   3.525   3.533   1.538  0.4368  1.0458 -0.0841
 2928SOL     OW 8602   3.565   4.766   0.944 -0.4045 -0.2505 -0.0388
 2928SOL    HW1 8603   3.510   4.786   1.025 -0.9433  0.9799 -0.6865
 2928SOL    HW2 8604   3.532   4.820   0.867  1.3413  0.0677 -0.6060
 2929SOL     OW 8605   0.361   4.397   1.152  0.7499 -0.3651 -0.6141
 2929SOL    HW1 8606   0.405   4.447   1.078  1.0996 -1.6692 -1.3234
 2929SOL    HW2 8607   0.311   4.319   1.115  2.3805 -2.0903  0.6276
 2930SOL     OW 8608   3.414   0.354   2.352  0.1684 -0.5057  0.4174
 2930SOL    HW1 8609   3.443   0.260   2.364 -1.3553 -1.2521 -1.2928
 2930SOL    HW2 8610   3.392   0.371   2.256  2.0050  2.1064  0.3421
 2931SOL     OW 8611   3.881   4.257   0.907 -0.4710  0.7290 -0.1861
 2931SOL    HW1 8612   3.956   4.215   0.958  0.2722  0.4183 -1.4992
 2931SOL    HW2 8613   3.796   4.249   0.960  0.0516 -0.6023  0.5039
 2932SOL     OW 8614   3.625   1.091   0.829 -0.2833 -0.5198  0.0353
 2932SOL    HW1 8615   3.556   1.118   0.761 -0.1434 -0.2289  0.0078
 2932SOL    HW2 8616   3.595   1.007   0.875 -1.4895  0.5299  1.2343
 2933SOL     OW 8617   3.386   4.411   2.224  0.1606 -0.2822  0.7371
 2933SOL    HW1 8618   3.408   4.332   2.167  0.4573  0.5518 -0.3476
 2933SOL    HW2 8619   3.465   4.433   2.282  1.2217  0.9357 -1.0519
 2934SOL     OW 8620   3.059   3.419   0.466 -0.8472 -0.0070  0.2945
 2934SOL    HW1 8621   3.138   3.361   0.483 -0.4498  0.8017  1.3301
 2934SOL    HW2 8622   3.078   3.511   0.501 -0.7748  1.2649 -2.7450
 2935SOL     OW 8623   0.891   2.888   0.320  0.2015 -0.5524 -0.3715
 2935SOL    HW1 8624   0.857   2.890   0.226  0.9232 -0.5686 -0.6386
 2935SOL    HW2 8625   0.926   2.979   0.344 -1.5072 -0.0766  0.4664
 2936SOL     OW 8626   4.202   4.029   0.356  0.0333 -0.0154 -0.2850
 2936SOL    HW1 8627   4.158   3.939   0.355  0.2600 -0.2500  2.6780
 2936SOL    HW2 8628   4.140   4.096   0.316 -0.9335 -1.1622 -0.7890
 2937SOL     OW 8629   3.552   4.943   2.906  0.7966  0.2554 -0.0119
 2937SOL    HW1 8630   3.648   4.969   2.895  0.9140 -0.7813 -1.7344
 2937SOL    HW2 8631   3.498   5.025   2.924  1.9048  0.9237  0.4150
 2938SOL     OW 8632   3.551   0.035   0.383 -0.3696  0.4071 -0.0254
 2938SOL    HW1 8633   3.518  -0.052   0.419  1.1323 -0.7263 -1.2665
 2938SOL    HW2 8634   3.537   0.039   0.284  0.9795  0.8942 -0.2229
 2939SOL     OW 8635   4.367   4.244   0.680 -0.0442  0.5805 -0.1658
 2939SOL    HW1 8636   4.405   4.212   0.593  2.0143 -0.9576  1.2239
 2939SOL    HW2 8637   4.423   4.211   0.756 -1.4340  2.3629  1.7613
 2940SOL     OW 8638   2.337   0.546   0.672  0.0700  0.1726 -0.3624
 2940SOL    HW1 8639   2.392   0.536   0.589 -0.5821 -0.5623 -0.7190
 2940SOL    HW2 8640   2.324   0.643   0.692  0.0666  0.3589 -1.2360
 2941SOL     OW 8641   4.687   3.737   1.829 -0.3661  0.2957  0.3734
 2941SOL    HW1 8642   4.717   3.669   1.896  0.1894  0.5469  0.3867
 2941SOL    HW2 8643   4.650   3.691   1.749  0.9508 -0.0575 -0.0603
 2942SOL     OW 8644   1.128   4.625   2.089 -0.1685  0.1608 -0.7250
 2942SOL    HW1 8645   1.163   4.716   2.113 -0.5735  0.2978 -0.6347
 2942SOL    HW2 8646   1.060   4.597   2.158 -2.4859  1.2130 -2.4476
 2943SOL     OW 8647   2.775   3.869   0.769  0.4850  0.2893  0.4510
 2943SOL    HW1 8648   2.784   3.961   0.730 -1.3124 -0.0166 -0.8138
 2943SOL    HW2 8649   2.795   3.801   0.698  0.6409 -0.2972  1.0482
 2944SOL     OW 8650   2.823   3.307   0.800  0.1600 -0.6648 -0.0692
 2944SOL    HW1 8651   2.844   3.340   0.892  1.2151 -0.9651 -0.1967
 2944SOL    HW2 8652   2.775   3.379   0.749 -1.8920 -1.0444  1.2112
 2945SOL     OW 8653   2.780   2.735   1.023 -0.0429 -0.4726  0.1198
 2945SOL    HW1 8654   2.824   2.824   1.010 -2.6007  0.6619 -1.4607
 2945SOL    HW2 8655   2.735   2.733   1.113 -0.2222 -0.0734  0.0370
 2946SOL     OW 8656   3.234   0.537   1.254  0.0053  0.2606 -0.2041
 2946SOL    HW1 8657   3.299   0.612   1.244 -0.1294  0.4679  0.4149
 2946SOL    HW2 8658   3.210   0.501   1.164 -0.0175  1.0355 -0.5148
 2947SOL     OW 8659   2.160   3.097   0.204 -0.7994 -0.5515  0.1871
 2947SOL    HW1 8660   2.118   3.071   0.291 -0.4824 -1.9154 -0.0569
 2947SOL    HW2 8661   2.119   3.183   0.172 -0.1202  0.5991  2.2260
 2948SOL     OW 8662   2.623   3.831   1.403 -0.0245  0.3192 -0.0045
 2948SOL    HW1 8663   2.603   3.738   1.373 -0.3166  0.0113  1.1059
 2948SOL    HW2 8664   2.550   3.892   1.372 -0.0398  0.1160 -0.3818
 2949SOL     OW 8665   3.939   3.989   0.507  0.4167  0.3613  0.2725
 2949SOL    HW1 8666   4.007   4.046   0.552 -0.0155  1.5919 -0.5916
 2949SOL    HW2 8667   3.984   3.912   0.462  1.3902  1.7634 -1.2462
 2950SOL     OW 8668   2.367   3.499   0.584  0.3224  0.1151  0.2424
 2950SOL    HW1 8669   2.318   3.472   0.501  0.0907 -0.0943  0.4441
 2950SOL    HW2 8670   2.305   3.494   0.662  0.4767  0.5275  0.3975
 2951SOL     OW 8671   1.762   0.384   1.653 -0.4446  0.5430  0.4892
 2951SOL    HW1 8672   1.743   0.288   1.631  0.9936 -0.8175  4.2779
 2951SOL    HW2 8673   1.689   0.420   1.712 -0.6439  1.6316 -0.3804
 2952SOL     OW 8674   2.342   3.661   2.812 -0.0472 -0.1397 -0.0024
 2952SOL    HW1 8675   2.282   3.670   2.891  0.3320  1.4366  0.1552
 2952SOL    HW2 8676   2.303   3.596   2.747 -2.6476  1.7787 -0.5323
 2953SOL     OW 8677   1.453   4.184   2.993 -0.2057 -0.4565 -0.1108
 2953SOL    HW1 8678   1.543   4.219   3.020 -1.7255  3.3470  0.6314
 2953SOL    HW2 8679   1.463   4.122   2.915  2.9563  0.4041 -0.5051
 2954SOL     OW 8680   2.555   0.438   2.478  0.0147  0.1802  0.0397
 2954SOL    HW1 8681   2.505   0.353   2.496 -0.6075  0.8635  1.7268
 2954SOL    HW2 8682   2.653   0.418   2.473  0.0408 -0.4498  2.1052
 2955SOL     OW 8683   4.414   4.539   3.087  0.2744  0.4156  0.2020
 2955SOL    HW1 8684   4.411   4.621   3.030  1.2825  0.5816  0.3704
 2955SOL    HW2 8685   4.505   4.530   3.129 -0.0315 -0.4220  0.7231
 2956SOL     OW 8686   2.586   4.995   1.550  0.4570 -1.1557  0.0864
 2956SOL    HW1 8687   2.626   5.046   1.474 -0.1769  0.4392  0.7564
 2956SOL    HW2 8688   2.648   4.923   1.579  2.0174  0.0764 -0.0659
 2957SOL     OW 8689   3.735   2.841   0.950  0.8400 -0.2690 -0.1847
 2957SOL    HW1 8690   3.644   2.806   0.970  0.5765  0.2974 -0.3655
 2957SOL    HW2 8691   3.728   2.934   0.913  1.3802 -0.8012 -1.7035
 2958SOL     OW 8692   2.797   4.164   1.437  0.1050 -0.4379  0.0489
 2958SOL    HW1 8693   2.706   4.188   1.403  1.0191  0.8577 -1.6064
 2958SOL    HW2 8694   2.837   4.093   1.379  0.4477 -0.4728  0.3245
 2959SOL     OW 8695   2.522   4.871   3.795 -0.4443  0.0424  0.3143
 2959SOL    HW1 8696   2.621   4.858   3.781 -0.1579  0.1530  2.0807
 2959SOL    HW2 8697   2.505   4.965   3.823 -1.4021  0.8445 -2.5769
 2960SOL     OW 8698   1.525   3.065   2.891  0.0607 -0.2045 -0.3968
 2960SOL    HW1 8699   1.578   3.054   2.975  1.6088  0.6744 -1.2185
 2960SOL    HW2 8700   1.522   3.161   2.865  0.2826 -0.5463 -1.7646
 2961SOL     OW 8701   3.399   4.421   3.335  0.4597 -0.2915 -0.8116
 2961SOL    HW1 8702   3.409   4.423   3.235 -0.9166 -2.5886 -1.0804
 2961SOL    HW2 8703   3.438   4.336   3.370  2.2964  1.1507  0.8642
 2962SOL     OW 8704   2.556   4.715   1.969 -0.0725 -0.7106  0.4270
 2962SOL    HW1 8705   2.499   4.728   1.889  0.7589  1.4813  0.1282
 2962SOL    HW2 8706   2.610   4.632   1.959 -0.0446 -0.5103 -1.2465
 2963SOL     OW 8707   2.571   4.411   2.695  0.0951  0.1886  0.4694
 2963SOL    HW1 8708   2.498   4.443   2.636 -0.1797 -0.4859  0.4267
 2963SOL    HW2 8709   2.658   4.409   2.645 -0.1516 -0.4625  0.0538
 2964SOL     OW 8710   4.425   3.735   3.567  0.0659  0.6689 -0.1928
 2964SOL    HW1 8711   4.424   3.829   3.533 -0.8615  1.2538  1.3343
 2964SOL    HW2 8712   4.516   3.712   3.600  0.2256  1.1522 -0.2970
 2965SOL     OW 8713   3.292   3.568   2.276  0.1278 -0.6534 -0.3974
 2965SOL    HW1 8714   3.385   3.602   2.263  0.5063 -1.2810  0.5237
 2965SOL    HW2 8715   3.282   3.479   2.232 -0.1276 -0.4480 -0.7542
 2966SOL     OW 8716   3.731   4.219   1.483  0.0326  0.1354  0.3835
 2966SOL    HW1 8717   3.693   4.145   1.426 -0.5563  1.2015 -0.6443
 2966SOL    HW2 8718   3.829   4.205   1.494 -0.2350 -1.3878  1.1163
 2967SOL     OW 8719   4.234   0.139   2.123 -0.5911 -0.4870  0.6156
 2967SOL    HW1 8720   4.152   0.194   2.103 -1.1976 -1.8321 -0.8094
 2967SOL    HW2 8721   4.230   0.054   2.071  1.2912 -0.9993  1.2458
 2968SOL     OW 8722   2.153   3.975   2.137  0.0471 -0.3580 -0.1972
 2968SOL    HW1 8723   2.178   3.908   2.207 -1.6374  0.5439  1.3689
 2968SOL    HW2 8724   2.203   4.060   2.152 -0.6236 -0.0224  0.2116
 2969SOL     OW 8725   3.911   5.000   2.477  0.0343  0.3495 -0.2233
 2969SOL    HW1 8726   3.976   5.021   2.551  0.2119  1.2656 -0.6284
 2969SOL    HW2 8727   3.962   4.980   2.393 -0.1917  0.2370 -0.3345
 2970SOL     OW 8728   3.845   0.226   3.716 -0.3555 -0.6700 -0.0470
 2970SOL    HW1 8729   3.942   0.228   3.741 -0.3522 -0.5341 -0.0678
 2970SOL    HW2 8730   3.789   0.252   3.795 -0.4425 -1.8319  0.2887
 2971SOL     OW 8731   1.987   3.602   3.816 -0.2960 -0.4469 -0.1427
 2971SOL    HW1 8732   2.061   3.660   3.852 -1.5575  1.5161 -0.5680
 2971SOL    HW2 8733   2.003   3.507   3.844  1.1867  0.2686  1.6635
 2972SOL     OW 8734   2.899   0.008   2.722 -0.0240  0.6586  0.3567
 2972SOL    HW1 8735   2.889   0.099   2.764  1.1052  0.6957  0.5900
 2972SOL    HW2 8736   2.809  -0.028   2.697 -0.4343  2.2002 -0.5117
 2973SOL     OW 8737   2.662   3.860   2.189  0.1063 -0.5398 -0.5043
 2973SOL    HW1 8738   2.611   3.834   2.272 -0.0558 -1.6169 -0.9159
 2973SOL    HW2 8739   2.636   3.798   2.114 -1.2214  1.6004 -1.9202
 2974SOL     OW 8740   1.672   4.908   2.159  0.0706  0.5175  0.5771
 2974SOL    HW1 8741   1.668   5.007   2.166 -0.6904  0.6028 -0.7554
 2974SOL    HW2 8742   1.709   4.883   2.069 -0.3612 -0.4035  0.6489
 2975SOL     OW 8743   3.163   3.130   1.172 -0.0418 -0.3687  0.1671
 2975SOL    HW1 8744   3.107   3.070   1.229  1.2994 -0.6846  1.2183
 2975SOL    HW2 8745   3.141   3.225   1.190 -0.5245 -0.4942  0.2499
 2976SOL     OW 8746   2.165   3.474   3.529  0.6501 -0.3891 -0.3689
 2976SOL    HW1 8747   2.244   3.508   3.479  0.8718  0.3791  0.4868
 2976SOL    HW2 8748   2.094   3.544   3.533  0.1050 -0.9062 -0.7224
 2977SOL     OW 8749   2.908   0.681   3.327  0.1832  0.0893  0.1001
 2977SOL    HW1 8750   2.995   0.647   3.362 -1.1653 -0.8390  2.9268
 2977SOL    HW2 8751   2.908   0.781   3.329  1.5243  0.1302 -0.9861
 2978SOL     OW 8752   3.243   4.079   2.925  0.1713 -0.0991  0.2555
 2978SOL    HW1 8753   3.244   4.126   3.013 -1.6302  0.7852 -0.1501
 2978SOL    HW2 8754   3.323   4.106   2.872  0.0187  1.2516  0.6703
 2979SOL     OW 8755   3.797   4.368   2.495 -0.3173 -0.1710 -0.0537
 2979SOL    HW1 8756   3.893   4.393   2.509 -0.1863 -0.6171 -0.1371
 2979SOL    HW2 8757   3.792   4.292   2.430 -0.4239 -3.0358  3.0619
 2980SOL     OW 8758   3.212   4.984   2.404 -0.0103 -0.4114 -0.6956
 2980SOL    HW1 8759   3.151   5.014   2.330 -0.0781  1.8262  0.1762
 2980SOL    HW2 8760   3.167   4.912   2.457 -1.3805  0.3043 -0.8357
 2981SOL     OW 8761   2.911   0.904   3.085 -0.6314 -0.2411  0.0378
 2981SOL    HW1 8762   2.986   0.843   3.062 -0.1976 -0.0719  0.9412
 2981SOL    HW2 8763   2.824   0.855   3.077 -0.5119 -0.2137 -1.7904
 2982SOL     OW 8764   3.431   4.691   2.114  0.1528  0.3930  0.0207
 2982SOL    HW1 8765   3.395   4.598   2.104 -3.3130  1.6621 -0.5845
 2982SOL    HW2 8766   3.485   4.714   2.033 -1.4466 -0.1460 -1.2581
 2983SOL     OW 8767   3.586   4.490   2.381  0.3062  0.2687 -0.6661
 2983SOL    HW1 8768   3.656   4.454   2.443 -0.2396 -1.0118 -0.7543
 2983SOL    HW2 8769   3.573   4.588   2.399 -0.5860 -0.2589  1.9930
 2984SOL     OW 8770   2.669   3.470   1.536  0.0358  0.7058 -0.3260
 2984SOL    HW1 8771   2.763   3.435   1.544  0.4281  1.6516 -0.6417
 2984SOL    HW2 8772   2.614   3.435   1.611  0.8579  0.7856  0.3325
 2985SOL     OW 8773   1.143   0.285   1.387  0.3453 -0.5178 -0.4410
 2985SOL    HW1 8774   1.107   0.342   1.461  0.4368 -0.3261 -0.5429
 2985SOL    HW2 8775   1.067   0.235   1.344  0.3822 -1.1561  0.2219
 2986SOL     OW 8776   2.683   3.955   1.859 -0.1927 -1.0285 -0.4689
 2986SOL    HW1 8777   2.650   4.037   1.906  1.5761 -0.6403  0.1995
 2986SOL    HW2 8778   2.636   3.874   1.894  0.1418 -0.5937  1.0505
 2987SOL     OW 8779   3.996   4.196   2.654 -0.6172 -0.5064  0.6300
 2987SOL    HW1 8780   4.021   4.287   2.620  0.8921 -1.5412 -1.2410
 2987SOL    HW2 8781   4.038   4.182   2.743  1.1638 -0.2125 -0.1150
 2988SOL     OW 8782   3.645   0.588   2.645 -0.1158  0.0604 -0.2259
 2988SOL    HW1 8783   3.607   0.597   2.737 -0.1065 -0.3209 -0.1848
 2988SOL    HW2 8784   3.582   0.629   2.579  0.5009  1.5682  0.0766
 2989SOL     OW 8785   3.322   4.380   1.856 -0.4204  0.6119  0.6557
 2989SOL    HW1 8786   3.285   4.370   1.764 -0.9453  1.1331  0.8059
 2989SOL    HW2 8787   3.421   4.369   1.853 -0.2565  2.0396 -0.2122
 2990SOL     OW 8788   3.819   0.234   2.002  0.5550  0.1672  0.9499
 2990SOL    HW1 8789   3.801   0.137   1.990  0.0107  0.3275  0.4169
 2990SOL    HW2 8790   3.733   0.285   1.997  0.9720  0.8114 -0.2408
 2991SOL     OW 8791   2.807   3.938   2.923 -0.0678 -0.4257 -0.1056
 2991SOL    HW1 8792   2.752   4.012   2.884 -0.2580 -0.1970  0.5886
 2991SOL    HW2 8793   2.748   3.874   2.971  0.2433 -0.3126  0.4365
 2992SOL     OW 8794   3.561   4.961   3.915  0.1711  0.0253 -0.0238
 2992SOL    HW1 8795   3.621   4.906   3.857 -0.8269 -0.6519 -0.4551
 2992SOL    HW2 8796   3.490   5.004   3.859 -1.1662 -1.1179  0.7296
 2993SOL     OW 8797   2.140   4.041   3.292  0.8081  0.0169 -0.3973
 2993SOL    HW1 8798   2.080   4.092   3.354  0.4396 -0.1296 -0.6285
 2993SOL    HW2 8799   2.235   4.063   3.311  0.6787  0.2496 -0.0216
 2994SOL     OW 8800   4.727   0.999   2.273 -0.1741 -0.2324  0.0046
 2994SOL    HW1 8801   4.684   0.943   2.344 -1.3044  0.8626  0.2211
 2994SOL    HW2 8802   4.736   1.093   2.305  2.0905 -0.3188 -0.1910
 2995SOL     OW 8803   1.745   2.993   1.468  0.1676 -0.5247 -0.3122
 2995SOL    HW1 8804   1.658   2.962   1.505  0.4153 -1.9719 -0.8597
 2995SOL    HW2 8805   1.757   3.090   1.486 -0.1787 -0.9267  2.4647
 2996SOL     OW 8806   3.114   4.262   1.973 -0.4730  0.1960 -0.0393
 2996SOL    HW1 8807   3.060   4.199   1.917  0.9005 -2.2826  1.2563
 2996SOL    HW2 8808   3.196   4.290   1.923 -0.1086 -0.6359  0.0866
 2997SOL     OW 8809   3.496   3.414   3.591  0.7211 -0.2371 -0.5601
 2997SOL    HW1 8810   3.594   3.407   3.572  0.8385  1.0272 -0.4692
 2997SOL    HW2 8811   3.477   3.499   3.640 -0.0875 -1.6617  1.7774
 2998SOL     OW 8812   1.913   4.016   2.301  0.1652 -0.1209  0.7055
 2998SOL    HW1 8813   1.834   3.954   2.298 -1.2046  1.5403  0.8998
 2998SOL    HW2 8814   1.977   3.992   2.228 -0.9691 -0.9184 -0.0653
 2999SOL     OW 8815   2.142   4.008   4.504  0.0266  0.4233 -0.6274
 2999SOL    HW1 8816   2.088   4.090   4.486 -1.0114 -0.3751 -1.2181
 2999SOL    HW2 8817   2.223   4.033   4.558 -2.4182  1.2265  2.9652
 3000SOL     OW 8818   2.741   4.599   2.841 -0.4584  0.4043 -0.4181
 3000SOL    HW1 8819   2.737   4.685   2.791 -0.2224  0.9563  0.4830
 3000SOL    HW2 8820   2.650   4.558   2.846 -0.2514 -0.4299 -2.5611
 3001SOL     OW 8821   2.823   0.951   3.403  0.0980  0.0142  0.2570
 3001SOL    HW1 8822   2.846   1.030   3.460 -0.0128  0.8462 -0.8342
 3001SOL    HW2 8823   2.799   0.981   3.311  2.4224 -1.4081 -0.9297
 3002SOL     OW 8824   2.183   3.751   2.326 -0.2912  0.2922  0.1102
 3002SOL    HW1 8825   2.235   3.815   2.383 -0.2646 -0.2234  0.6807
 3002SOL    HW2 8826   2.146   3.678   2.383  0.4764 -0.7264 -0.6505
 3003SOL     OW 8827   1.537   0.460   1.208 -0.7158 -0.3883 -0.1611
 3003SOL    HW1 8828   1.472   0.423   1.276  0.0648 -0.1475  0.7386
 3003SOL    HW2 8829   1.572   0.548   1.240 -1.4571  0.4682 -1.6050
 3004SOL     OW 8830   3.607   0.044   1.449  0.0881 -0.2326  0.4483
 3004SOL    HW1 8831   3.584   0.003   1.360 -1.0390  1.6301 -0.1812
 3004SOL    HW2 8832   3.525   0.050   1.505  0.5762 -0.3859  1.1905
 3005SOL     OW 8833   3.032   4.651   0.830 -0.2745 -0.2513 -0.0724
 3005SOL    HW1 8834   3.015   4.612   0.921  3.8016  0.7950  1.3357
 3005SOL    HW2 8835   3.035   4.577   0.762  2.4419 -1.9416  1.7083
 3006SOL     OW 8836   2.422   4.737   1.689  0.4254  0.1130  0.0748
 3006SOL    HW1 8837   2.424   4.837   1.684  0.9684  0.0725 -4.3136
 3006SOL    HW2 8838   2.328   4.706   1.700  0.3367  1.0090  2.4462
 3007SOL     OW 8839   2.302   4.456   4.053 -0.5145 -0.2304  0.0510
 3007SOL    HW1 8840   2.213   4.494   4.025 -1.1182 -2.2007 -0.8715
 3007SOL    HW2 8841   2.375   4.516   4.021 -1.4741  0.9776  0.0565
 3008SOL     OW 8842   3.271   1.081   2.995 -0.3871  0.3526 -0.0422
 3008SOL    HW1 8843   3.317   1.037   3.072 -1.2352 -0.5677 -0.0553
 3008SOL    HW2 8844   3.235   1.170   3.024 -1.2705 -0.2716  0.8100
 3009SOL     OW 8845   3.427   4.751   2.738  0.3015 -0.1567  0.1958
 3009SOL    HW1 8846   3.476   4.758   2.651 -0.0532  0.3431  0.0348
 3009SOL    HW2 8847   3.453   4.827   2.797 -2.1997  1.6468 -0.8710
 3010SOL     OW 8848   3.093   3.622   1.023  0.4456 -0.4602 -0.0783
 3010SOL    HW1 8849   3.087   3.652   0.928 -0.6715 -0.6750 -0.0895
 3010SOL    HW2 8850   3.069   3.698   1.083 -0.4750 -0.7612 -0.0417
 3011SOL     OW 8851   5.040   3.626   3.749  0.3141  0.2446  0.3865
 3011SOL    HW1 8852   5.018   3.530   3.730 -0.4009  0.6591 -1.0392
 3011SOL    HW2 8853   4.978   3.685   3.698  1.0093  1.4728  0.9171
 3012SOL     OW 8854   1.482   0.269   2.209  0.1394  0.1021  0.4559
 3012SOL    HW1 8855   1.416   0.196   2.225 -0.6423  0.6217 -0.2646
 3012SOL    HW2 8856   1.433   0.352   2.182  0.9995  0.9261  1.3462
 3013SOL     OW 8857   2.902   0.531   2.946  0.5408 -0.9408  0.2614
 3013SOL    HW1 8858   2.849   0.609   2.979  0.0699 -1.9227  1.9624
 3013SOL    HW2 8859   2.874   0.507   2.854 -0.2431  0.0783  0.2252
 3014SOL     OW 8860   3.139   3.292   3.132 -0.1479  0.2199 -0.4566
 3014SOL    HW1 8861   3.223   3.263   3.177 -0.4642 -0.8401 -0.5265
 3014SOL    HW2 8862   3.088   3.353   3.192  0.0563 -0.1535  0.1044
 3015SOL     OW 8863   2.621   0.211   1.619 -0.1650  0.5853  0.1981
 3015SOL    HW1 8864   2.542   0.256   1.659 -0.6584 -1.5012  1.7495
 3015SOL    HW2 8865   2.596   0.118   1.591  1.7838 -0.2700  1.0772
 3016SOL     OW 8866   4.291   3.914   2.733  0.2455  0.1289 -0.0766
 3016SOL    HW1 8867   4.257   3.914   2.827  2.0935  0.7193  0.6419
 3016SOL    HW2 8868   4.377   3.964   2.729  0.0176  0.4305 -2.1790
 3017SOL     OW 8869   4.004   4.112   1.479 -0.2904 -0.7185 -0.2115
 3017SOL    HW1 8870   4.083   4.153   1.525 -1.0283  1.8306 -1.0175
 3017SOL    HW2 8871   4.035   4.061   1.398  0.7051 -2.1571  1.0330
 3018SOL     OW 8872   3.778   5.029   1.992 -0.5744 -0.3896  0.0157
 3018SOL    HW1 8873   3.710   4.984   1.934 -0.3789  0.0429 -0.5593
 3018SOL    HW2 8874   3.869   5.017   1.952 -0.4215 -0.2156  0.3100
 3019SOL     OW 8875   3.919   0.089   1.683  0.9963  0.5964  0.2687
 3019SOL    HW1 8876   3.920  -0.009   1.702  1.2811  0.3951 -0.7217
 3019SOL    HW2 8877   4.008   0.118   1.648  0.1774  0.6577 -1.9613
 3020SOL     OW 8878   2.552   3.590   1.329 -0.4720  0.1475  0.3823
 3020SOL    HW1 8879   2.597   3.559   1.413  0.4223  2.3910  0.7935
 3020SOL    HW2 8880   2.594   3.543   1.250  1.0546  0.5221  0.9413
 3021SOL     OW 8881   3.605   0.009   2.193  0.0258 -0.2146 -0.6692
 3021SOL    HW1 8882   3.546  -0.068   2.218 -1.4854  0.8028 -0.9723
 3021SOL    HW2 8883   3.669  -0.020   2.122 -1.4949 -0.8549 -1.8537
 3022SOL     OW 8884   4.985   0.192   4.071  0.7295  0.0844  0.3838
 3022SOL    HW1 8885   4.889   0.165   4.061  0.9999 -0.0699 -2.9222
 3022SOL    HW2 8886   5.038   0.114   4.105  0.1376 -0.8325 -0.7288
 3023SOL     OW 8887   3.087   4.325   3.274 -0.2865 -0.4043 -0.3980
 3023SOL    HW1 8888   3.086   4.386   3.194 -0.5281  0.1986  0.0630
 3023SOL    HW2 8889   3.029   4.245   3.256 -2.4581  0.9743  0.1400
 3024SOL     OW 8890   3.081   4.777   2.539 -0.0408 -0.2979 -0.1367
 3024SOL    HW1 8891   3.099   4.787   2.637  0.3771  1.5313 -0.3639
 3024SOL    HW2 8892   3.144   4.710   2.500  0.4268 -0.3430  0.6743
 3025SOL     OW 8893   3.535   4.551   1.643  0.0430  0.0764  0.2975
 3025SOL    HW1 8894   3.608   4.496   1.685 -0.2760 -1.5452 -1.1398
 3025SOL    HW2 8895   3.497   4.501   1.564 -0.8710  2.0171 -0.5562
 3026SOL     OW 8896   1.813   4.638   2.267  0.4012  0.1387  0.3281
 3026SOL    HW1 8897   1.790   4.731   2.237 -0.9093 -0.7564 -1.5631
 3026SOL    HW2 8898   1.776   4.571   2.202  0.8202 -1.7543  1.9516
 3027SOL     OW 8899   3.308   0.324   1.778 -0.4735 -0.0927  0.5514
 3027SOL    HW1 8900   3.337   0.336   1.873 -1.2200 -0.5018  0.8455
 3027SOL    HW2 8901   3.368   0.376   1.717 -2.2576  3.4571  1.5337
 3028SOL     OW 8902   3.300   0.545   2.506  0.0765  0.4787 -0.0933
 3028SOL    HW1 8903   3.346   0.466   2.466  0.3192 -0.7468  2.4183
 3028SOL    HW2 8904   3.210   0.557   2.463  1.3074  0.9118 -2.7737
 3029SOL     OW 8905   3.480   4.084   2.792  0.3146  0.5766 -0.1137
 3029SOL    HW1 8906   3.555   4.080   2.857  1.2533  1.9565 -1.0667
 3029SOL    HW2 8907   3.502   4.148   2.718 -1.2913  0.1065 -1.0667
 3030SOL     OW 8908   2.902   4.170   2.528  0.2648 -0.3717  0.2478
 3030SOL    HW1 8909   2.989   4.129   2.555  2.1415  1.7617 -2.1348
 3030SOL    HW2 8910   2.874   4.236   2.598  1.0260 -0.4534  0.6409
 3031SOL     OW 8911   3.233   3.708   2.513  0.3587  0.0791 -0.3434
 3031SOL    HW1 8912   3.251   3.652   2.433 -0.6110  0.7882 -1.0697
 3031SOL    HW2 8913   3.259   3.803   2.494 -0.7320  0.4303 -0.1601
 3032SOL     OW 8914   3.133   0.087   2.609  0.7573  0.0850 -0.7801
 3032SOL    HW1 8915   3.170   0.021   2.543  1.1090 -0.1066 -0.4007
 3032SOL    HW2 8916   3.050   0.050   2.651  0.1344  0.5023 -1.6128
 3033SOL     OW 8917   2.919   4.784   2.962  0.1416 -0.0497 -0.1955
 3033SOL    HW1 8918   2.894   4.691   2.988  1.2419 -0.5104 -0.7037
 3033SOL    HW2 8919   3.003   4.782   2.907  0.0103  1.2172 -0.4828
 3034SOL     OW 8920   2.558   3.975   3.712  0.4708  0.5564 -0.5943
 3034SOL    HW1 8921   2.654   3.947   3.715 -0.0436 -1.2514  1.0398
 3034SOL    HW2 8922   2.517   3.943   3.626  0.8455 -0.4411 -0.4174
 3035SOL     OW 8923   2.774   4.239   3.060  0.0859  0.2987 -0.3951
 3035SOL    HW1 8924   2.803   4.335   3.053  2.2175 -0.3801 -2.0307
 3035SOL    HW2 8925   2.736   4.209   2.973  0.2133 -0.5584 -0.1678
 3036SOL     OW 8926   3.599   4.579   3.782  0.3308 -0.2303 -0.4862
 3036SOL    HW1 8927   3.503   4.592   3.805  0.5439 -0.1554  0.4112
 3036SOL    HW2 8928   3.614   4.600   3.685 -0.9734 -2.3985 -1.2250
 3037SOL     OW 8929   3.997   3.504   2.690 -0.1498 -0.3400 -0.0238
 3037SOL    HW1 8930   4.062   3.547   2.627 -0.5494  1.3294  0.6414
 3037SOL    HW2 8931   3.908   3.548   2.680  0.4802  2.3629  3.8674
 3038SOL     OW 8932   1.408   3.723   2.650 -0.5529  0.0754 -0.4247
 3038SOL    HW1 8933   1.388   3.821   2.654 -1.1347 -0.0778  1.1234
 3038SOL    HW2 8934   1.329   3.672   2.683 -0.2774 -0.9445 -1.2633
 3039SOL     OW 8935   3.461   4.171   2.099  0.2406 -0.3666  0.4764
 3039SOL    HW1 8936   3.426   4.112   2.026 -0.7791 -0.9138  1.3854
 3039SOL    HW2 8937   3.460   4.122   2.186 -0.4957  0.9316  1.2278
 3040SOL     OW 8938   3.970   3.780   3.059  0.7088  0.1155 -0.5870
 3040SOL    HW1 8939   3.877   3.815   3.061  0.3986 -0.4323 -2.8041
 3040SOL    HW2 8940   3.970   3.684   3.087  0.5948  0.0893 -0.6755
 3041SOL     OW 8941   2.776   3.097   2.199  0.1620  0.2212 -0.0119
 3041SOL    HW1 8942   2.802   3.187   2.164 -1.0243  0.2235 -0.9493
 3041SOL    HW2 8943   2.682   3.101   2.233  0.1566 -0.6379  0.0836
 3042SOL     OW 8944   2.903   4.447   1.761 -0.1127  0.2749  0.0174
 3042SOL    HW1 8945   2.967   4.519   1.788  0.6497 -0.5077  0.3483
 3042SOL    HW2 8946   2.954   4.370   1.723 -0.8951 -0.2034 -0.0803
 3043SOL     OW 8947   3.250   3.967   1.632  0.4896  0.5284  0.2716
 3043SOL    HW1 8948   3.233   4.065   1.627 -0.3922  0.4363  1.1642
 3043SOL    HW2 8949   3.173   3.917   1.593  1.1297  0.1848 -0.5869
 3044SOL     OW 8950   3.692   4.753   4.843  0.3093 -0.1284 -0.2984
 3044SOL    HW1 8951   3.774   4.797   4.880  1.1307 -1.6442 -0.2514
 3044SOL    HW2 8952   3.624   4.742   4.915  1.3198 -1.7109  0.4672
 3045SOL     OW 8953   1.326   0.645   2.601 -0.1348 -0.3336 -0.5545
 3045SOL    HW1 8954   1.323   0.583   2.680  0.4427 -1.6418 -1.5173
 3045SOL    HW2 8955   1.232   0.665   2.571 -0.3329 -1.1886 -0.5471
 3046SOL     OW 8956   2.689   4.484   1.937 -0.0837  0.6366  0.1235
 3046SOL    HW1 8957   2.729   4.463   2.026 -0.2922 -1.7135 -0.2904
 3046SOL    HW2 8958   2.760   4.475   1.866  0.0400  2.3292 -0.0185
 3047SOL     OW 8959   2.486   4.285   1.904 -0.0938 -0.5784 -0.1068
 3047SOL    HW1 8960   2.524   4.199   1.937 -0.1425 -1.4486 -2.1717
 3047SOL    HW2 8961   2.555   4.358   1.915 -0.0574 -0.8467  1.6512
 3048SOL     OW 8962   2.411   4.393   2.454 -0.2915  0.1554 -0.4973
 3048SOL    HW1 8963   2.416   4.299   2.422 -1.6836  0.2508 -1.0971
 3048SOL    HW2 8964   2.419   4.455   2.375  1.3225  0.5927 -0.0351
 3049SOL     OW 8965   2.386   4.075   3.397 -0.1711 -0.8399 -0.0343
 3049SOL    HW1 8966   2.416   3.987   3.432 -1.0572 -1.8069 -1.5909
 3049SOL    HW2 8967   2.451   4.108   3.329 -0.7332 -1.1832 -0.7568
 3050SOL     OW 8968   4.037   4.378   3.897 -0.4336  0.2654 -0.0460
 3050SOL    HW1 8969   3.986   4.415   3.820 -0.3437  0.7150  0.1062
 3050SOL    HW2 8970   4.134   4.370   3.873 -0.5213 -0.2651 -0.2201
 3051SOL     OW 8971   3.437   0.311   3.896 -0.1171 -0.5354  0.1493
 3051SOL    HW1 8972   3.533   0.335   3.886 -0.1532 -0.6318 -0.4339
 3051SOL    HW2 8973   3.414   0.308   3.994  0.0106  1.2688  0.2734
 3052SOL     OW 8974   2.004   5.003   1.956  0.3111  0.3673  0.0664
 3052SOL    HW1 8975   2.029   5.027   2.050  1.7866  2.3746 -0.7572
 3052SOL    HW2 8976   1.928   4.939   1.957 -0.0929  0.7766  2.6087
 3053SOL     OW 8977   3.639   4.984   3.308  0.2671 -0.1038  0.3917
 3053SOL    HW1 8978   3.594   5.069   3.281 -1.8661 -1.6432 -1.2522
 3053SOL    HW2 8979   3.594   4.946   3.389 -1.0979 -1.3477 -0.9034
 3054SOL     OW 8980   0.890   4.514   3.057  0.2355  0.1820  0.1178
 3054SOL    HW1 8981   0.808   4.568   3.078  0.4449 -0.0838  1.6787
 3054SOL    HW2 8982   0.952   4.514   3.135  0.8807 -1.1813 -0.3551
 3055SOL     OW 8983   2.749   4.458   2.485  0.1049  0.2309 -0.4703
 3055SOL    HW1 8984   2.741   4.552   2.453  0.0242 -0.4935 -2.7811
 3055SOL    HW2 8985   2.736   4.395   2.407 -3.7886 -1.8488  1.5510
 3056SOL     OW 8986   3.942   5.029   3.646 -0.0205 -0.2431  0.2719
 3056SOL    HW1 8987   3.891   4.944   3.658 -0.1729 -0.4071 -1.3071
 3056SOL    HW2 8988   3.878   5.106   3.646 -0.8373 -0.6307 -4.3894
 3057SOL     OW 8989   4.086   4.073   2.039 -0.0344 -0.3904  0.1284
 3057SOL    HW1 8990   4.089   4.029   2.129  2.2297 -0.0127  0.2934
 3057SOL    HW2 8991   4.045   4.011   1.973 -2.1662 -0.5168  1.4510
 3058SOL     OW 8992   3.506   0.148   3.234 -0.6312 -0.4455  0.0497
 3058SOL    HW1 8993   3.455   0.212   3.292  1.2755  3.1764 -1.9770
 3058SOL    HW2 8994   3.451   0.125   3.154 -0.2374  1.2342 -0.7470
 3059SOL     OW 8995   3.509   4.352   1.449 -0.3009  0.0642  0.5293
 3059SOL    HW1 8996   3.603   4.320   1.458  0.0052  0.2965 -1.3580
 3059SOL    HW2 8997   3.452   4.277   1.415 -0.6615  0.1134  1.0170
 3060SOL     OW 8998   2.653   4.891   1.211  0.0310  0.4510  0.2827
 3060SOL    HW1 8999   2.721   4.952   1.173  0.0452  0.3200  0.0986
 3060SOL    HW2 9000   2.583   4.944   1.259 -0.3258  0.6553 -0.4573
 3061SOL     OW 9001   2.428   1.237   3.922 -0.1064 -0.5137  0.6342
 3061SOL    HW1 9002   2.440   1.335   3.942 -2.9024 -0.0544  0.4488
 3061SOL    HW2 9003   2.495   1.208   3.854 -1.3017  2.1487 -1.8687
 3062SOL     OW 9004   2.608   4.674   3.182  0.0423 -0.1677 -0.6067
 3062SOL    HW1 9005   2.587   4.606   3.113 -0.3850 -0.2248 -0.4231
 3062SOL    HW2 9006   2.530   4.684   3.244 -0.4718  1.4891 -1.4538
 3063SOL     OW 9007   3.614   4.484   1.102 -0.5274 -0.1777  0.2738
 3063SOL    HW1 9008   3.552   4.510   1.029 -0.7848 -1.0774  0.1616
 3063SOL    HW2 9009   3.645   4.390   1.088  0.8078  0.2317  0.3696
 3064SOL     OW 9010   1.726   0.851   2.135 -0.1503 -0.3069 -0.0317
 3064SOL    HW1 9011   1.630   0.825   2.140  0.1999 -1.4864  1.8700
 3064SOL    HW2 9012   1.784   0.770   2.147  1.0763  0.4815 -0.3835
 3065SOL     OW 9013   3.945   3.678   2.098 -0.2087 -0.1096  0.2481
 3065SOL    HW1 9014   4.010   3.608   2.068  1.6834  0.7926  1.9852
 3065SOL    HW2 9015   3.949   3.687   2.197 -0.1305  2.6891  0.0607
 3066SOL     OW 9016   3.188   4.768   3.086  0.0405  0.0542  0.4087
 3066SOL    HW1 9017   3.148   4.788   3.175 -0.7778  0.0287  0.0584
 3066SOL    HW2 9018   3.286   4.751   3.096  0.4419  2.4046  0.9735
 3067SOL     OW 9019   2.449   0.208   4.031 -0.0110  0.1108  0.7538
 3067SOL    HW1 9020   2.496   0.296   4.026  0.3518 -0.0371  1.3828
 3067SOL    HW2 9021   2.458   0.171   4.123  1.1507 -1.3016  0.1018
 3068SOL     OW 9022   4.206   4.097   2.360 -0.0544  0.2391  0.1221
 3068SOL    HW1 9023   4.266   4.044   2.300 -0.3686  1.8059 -1.6894
 3068SOL    HW2 9024   4.156   4.036   2.421  0.0883 -1.4726 -1.4048
 3069SOL     OW 9025   2.527   5.046   1.954 -0.2459 -0.5607 -0.2955
 3069SOL    HW1 9026   2.619   5.026   1.920  1.3573  2.1369  2.0039
 3069SOL    HW2 9027   2.494   4.970   2.009  1.8148 -0.5370  1.0532
 3070SOL     OW 9028   2.148   4.248   1.313 -0.4614  0.4302  0.2801
 3070SOL    HW1 9029   2.192   4.336   1.332 -0.5970  0.6998 -0.5977
 3070SOL    HW2 9030   2.172   4.182   1.385  3.3242 -0.1563 -1.2721
 3071SOL     OW 9031   2.406   4.645   2.302  0.2599 -0.1738  0.3974
 3071SOL    HW1 9032   2.384   4.684   2.391  1.8149 -0.2044  0.8182
 3071SOL    HW2 9033   2.374   4.707   2.230  0.5556  0.7143  1.0105
 3072SOL     OW 9034   4.207   4.263   1.534 -0.3524  0.2216  0.4617
 3072SOL    HW1 9035   4.218   4.345   1.591  0.0032 -0.2426  1.0807
 3072SOL    HW2 9036   4.286   4.254   1.473  0.8406 -0.9442  2.0937
 3073SOL     OW 9037   1.961   0.391   2.289 -0.7787 -0.5805 -0.3072
 3073SOL    HW1 9038   2.038   0.371   2.349  0.2259 -0.5956 -1.5550
 3073SOL    HW2 9039   1.989   0.379   2.193 -2.7324 -1.9865 -0.7583
 3074SOL     OW 9040   2.698   4.668   2.295  0.4897 -0.4996 -0.0103
 3074SOL    HW1 9041   2.600   4.675   2.312  0.6262 -2.0205  1.6699
 3074SOL    HW2 9042   2.747   4.729   2.357  0.6282  0.9531 -1.4603
 3075SOL     OW 9043   1.794   4.839   1.911 -0.3937  0.4368 -0.1450
 3075SOL    HW1 9044   1.863   4.770   1.888 -1.4335 -1.0964  1.1316
 3075SOL    HW2 9045   1.732   4.852   1.834 -0.3892 -0.3059 -0.2741
 3076SOL     OW 9046   2.342   3.926   2.479 -0.3164 -0.4349  0.2155
 3076SOL    HW1 9047   2.364   4.016   2.443 -0.3493 -0.8836 -0.9896
 3076SOL    HW2 9048   2.297   3.935   2.568 -2.0192  0.8470 -0.7067
 3077SOL     OW 9049   3.790   3.210   2.955 -0.0973  0.4745  0.2037
 3077SOL    HW1 9050   3.710   3.252   2.999  0.9393  0.3855  2.3185
 3077SOL    HW2 9051   3.822   3.134   3.012  0.4868 -0.5803 -1.4849
 3078SOL     OW 9052   2.973   0.140   3.946  0.3755 -0.0632 -0.0266
 3078SOL    HW1 9053   3.061   0.158   3.901  1.1265  0.5399  1.6051
 3078SOL    HW2 9054   2.945   0.221   3.997 -2.2411  0.5426 -2.2150
 3079SOL     OW 9055   3.586   4.739   2.504  0.3177  0.5007  0.0272
 3079SOL    HW1 9056   3.568   4.816   2.443 -0.4620 -0.0217 -0.4187
 3079SOL    HW2 9057   3.683   4.716   2.501  0.1211 -0.2938 -1.9916
 3080SOL     OW 9058   1.072   4.413   1.934 -0.5143 -0.0197  0.7762
 3080SOL    HW1 9059   1.007   4.437   1.862 -0.1581  0.6747  0.6825
 3080SOL    HW2 9060   1.080   4.489   1.998 -2.0369 -1.1977  2.4844
 3081SOL     OW 9061   2.818   0.717   2.508  0.2466  0.0470 -0.0300
 3081SOL    HW1 9062   2.735   0.743   2.557  1.0069  0.5941  1.0384
 3081SOL    HW2 9063   2.863   0.799   2.473  0.4776 -0.2176 -0.3562
 3082SOL     OW 9064   1.540   4.306   2.591  0.1108 -0.0428 -0.1574
 3082SOL    HW1 9065   1.485   4.389   2.587 -0.8368 -0.6350  0.3185
 3082SOL    HW2 9066   1.637   4.331   2.598 -0.2806  1.1187  2.6589
 3083SOL     OW 9067   3.152   4.413   3.002  0.0040  0.0001  0.4960
 3083SOL    HW1 9068   3.214   4.490   3.012  1.1712 -0.4824 -2.1644
 3083SOL    HW2 9069   3.205   4.328   2.994 -1.1339 -0.7538  0.7024
 3084SOL     OW 9070   3.138   4.955   3.965  0.1209 -0.5982 -0.1157
 3084SOL    HW1 9071   3.105   4.864   3.940  2.5227 -1.6603  0.3360
 3084SOL    HW2 9072   3.059   5.015   3.983 -1.6172 -1.6744 -3.2857
 3085SOL     OW 9073   3.480   5.041   4.264  0.4880 -0.8656 -0.6171
 3085SOL    HW1 9074   3.501   4.944   4.271  0.0887 -0.9509 -0.6121
 3085SOL    HW2 9075   3.384   5.053   4.239  0.4276 -0.4684 -0.2146
 3086SOL     OW 9076   3.998   4.798   4.951  0.0022 -0.2968 -0.2484
 3086SOL    HW1 9077   4.040   4.726   4.896 -2.0839 -2.9007  1.2918
 3086SOL    HW2 9078   4.070   4.849   4.999  1.5828 -1.2421 -1.5063
 3087SOL     OW 9079   4.251   3.839   1.713 -0.4071  0.9917 -0.1195
 3087SOL    HW1 9080   4.291   3.928   1.733 -1.1274  1.2452  0.2174
 3087SOL    HW2 9081   4.169   3.826   1.769 -0.8921  0.5539 -0.9111
 3088SOL     OW 9082   3.138   4.127   2.242  0.7142 -0.1073  0.4416
 3088SOL    HW1 9083   3.047   4.084   2.234  0.2724  0.3427  2.5349
 3088SOL    HW2 9084   3.148   4.197   2.172 -1.4333  1.2883  1.4303
 3089SOL     OW 9085   3.232   3.364   4.447 -0.0399 -0.2298  0.3866
 3089SOL    HW1 9086   3.254   3.271   4.419  1.5605  0.2530 -0.0736
 3089SOL    HW2 9087   3.223   3.422   4.366 -3.5007 -0.4077  0.4891
 3090SOL     OW 9088   4.022   4.812   3.327  0.0930 -0.7931  0.1821
 3090SOL    HW1 9089   3.984   4.741   3.386 -1.0698 -0.2890  0.0789
 3090SOL    HW2 9090   3.950   4.847   3.266  0.1656  1.5535  1.3110
 3091SOL     OW 9091   3.130   4.317   3.570 -0.4076  0.6660 -0.0645
 3091SOL    HW1 9092   3.037   4.351   3.586 -1.3684 -1.4116 -0.8163
 3091SOL    HW2 9093   3.160   4.345   3.479 -1.3867 -0.7933 -0.8772
 3092SOL     OW 9094   2.610   4.580   1.554  0.3826 -0.0964 -0.7398
 3092SOL    HW1 9095   2.657   4.547   1.636  1.4340  1.3977 -0.6842
 3092SOL    HW2 9096   2.544   4.651   1.580 -0.7622 -1.0417 -0.9991
 3093SOL     OW 9097   3.542   4.722   1.855  0.2542  0.3756 -0.3029
 3093SOL    HW1 9098   3.513   4.655   1.787 -0.6553  1.5357 -1.0900
 3093SOL    HW2 9099   3.639   4.710   1.874  0.6643  0.3673 -2.2273
 3094SOL     OW 9100   3.256   3.966   2.452 -0.1730  0.7186 -0.3637
 3094SOL    HW1 9101   3.211   3.974   2.363 -0.4098  0.3482 -0.2770
 3094SOL    HW2 9102   3.194   4.000   2.523  0.3808  1.9322 -0.4389
 3095SOL     OW 9103   3.438   4.626   1.346  0.1892  0.0622 -0.1318
 3095SOL    HW1 9104   3.462   4.530   1.358  0.4709  0.3429  2.0371
 3095SOL    HW2 9105   3.504   4.669   1.285  1.8764 -0.5045  1.1933
 3096SOL     OW 9106   0.536   4.082   2.390 -0.0653 -0.0927 -0.1282
 3096SOL    HW1 9107   0.449   4.049   2.428 -0.1830  1.6765  1.2921
 3096SOL    HW2 9108   0.601   4.006   2.387 -0.3664 -0.6049  2.8376
 3097SOL     OW 9109   2.715   4.862   2.782 -0.6155  0.3922 -0.5997
 3097SOL    HW1 9110   2.794   4.851   2.842  0.3251 -0.9658 -2.0102
 3097SOL    HW2 9111   2.659   4.938   2.813  1.5694  1.7839  0.0936
 3098SOL     OW 9112   3.309   2.990   3.005  0.1255 -0.6136  0.1147
 3098SOL    HW1 9113   3.340   2.897   2.986  0.6434 -0.3235 -0.5372
 3098SOL    HW2 9114   3.308   3.006   3.104  1.1192 -0.9663  0.1959
 3099SOL     OW 9115   3.052   4.748   3.326 -0.2978 -0.1482  0.2415
 3099SOL    HW1 9116   2.988   4.672   3.315 -2.9249  2.0890 -1.3691
 3099SOL    HW2 9117   3.021   4.807   3.400  0.6340  0.3263  0.2679
 3100SOL     OW 9118   4.386   3.484   1.138 -0.3793 -0.4026 -0.1943
 3100SOL    HW1 9119   4.443   3.566   1.126 -0.8287 -0.1093 -0.3570
 3100SOL    HW2 9120   4.397   3.450   1.232 -1.1181  0.5633  0.2592
 3101SOL     OW 9121   3.598   3.230   3.304  0.0719 -0.1433 -0.1335
 3101SOL    HW1 9122   3.597   3.280   3.217  0.9040 -1.3486 -0.8738
 3101SOL    HW2 9123   3.519   3.169   3.309 -0.0735  0.0597  0.0358
 3102SOL     OW 9124   4.078   3.946   2.553  0.8079 -0.0205 -0.4632
 3102SOL    HW1 9125   4.135   3.907   2.625 -0.7736 -0.5138  0.5505
 3102SOL    HW2 9126   4.041   4.034   2.583 -1.0154 -0.8884 -0.0521
 3103SOL     OW 9127   1.753   0.778   1.757  0.0843  0.5781  0.5460
 3103SOL    HW1 9128   1.771   0.728   1.842  2.0969  1.8552  0.9497
 3103SOL    HW2 9129   1.810   0.739   1.684 -0.6187  0.3673  0.0983
 3104SOL     OW 9130   2.153   0.691   4.816 -0.4068  0.2014 -0.1122
 3104SOL    HW1 9131   2.248   0.668   4.833 -0.2354 -0.0298 -1.3342
 3104SOL    HW2 9132   2.146   0.751   4.736 -1.2034  1.1041  0.5953
 3105SOL     OW 9133   3.230   4.389   0.915 -0.2399 -0.1857 -0.0168
 3105SOL    HW1 9134   3.325   4.396   0.883  0.2153 -3.5017  0.2984
 3105SOL    HW2 9135   3.195   4.481   0.933  2.8912  1.1788 -0.1331
 3106SOL     OW 9136   2.624   3.745   4.620 -0.1111  0.1130 -0.4353
 3106SOL    HW1 9137   2.579   3.734   4.532 -1.1765  0.9907 -0.0309
 3106SOL    HW2 9138   2.665   3.658   4.648 -1.3132 -0.6459 -0.9550
 3107SOL     OW 9139   2.865   3.982   1.014 -0.0977 -0.2907 -0.0352
 3107SOL    HW1 9140   2.859   4.081   1.016 -1.6910 -0.3589  0.3706
 3107SOL    HW2 9141   2.827   3.948   0.928 -1.4862 -0.6107  0.6768
 3108SOL     OW 9142   3.249   4.492   0.481 -0.5403 -0.2329 -0.0588
 3108SOL    HW1 9143   3.338   4.452   0.463 -0.2589 -0.0015  0.7518
 3108SOL    HW2 9144   3.260   4.589   0.505 -0.8729 -0.4853  1.2070
 3109SOL     OW 9145   2.533   3.321   4.367 -0.1504  0.1233  0.5587
 3109SOL    HW1 9146   2.585   3.350   4.447  1.0550 -0.9463  0.1959
 3109SOL    HW2 9147   2.577   3.241   4.325 -3.0708 -2.0762  1.3065
 3110SOL     OW 9148   2.886   0.658   3.765  0.1012  0.2659  0.4824
 3110SOL    HW1 9149   2.929   0.739   3.806 -0.2921  0.9407 -0.3918
 3110SOL    HW2 9150   2.943   0.626   3.689 -0.7201  0.9462 -0.4501
 3111SOL     OW 9151   3.097   0.736   0.496 -0.2089 -0.3363 -0.2521
 3111SOL    HW1 9152   3.152   0.795   0.437 -0.7704  0.7055  0.2459
 3111SOL    HW2 9153   3.121   0.641   0.479  2.5765  0.0796  0.7304
 3112SOL     OW 9154   3.057   4.576   4.764  0.2687  0.6548  0.3185
 3112SOL    HW1 9155   3.048   4.590   4.665 -0.4317 -2.2681 -0.1238
 3112SOL    HW2 9156   2.972   4.603   4.809 -0.1447  0.1377 -0.1426
 3113SOL     OW 9157   2.255   3.762   4.386  0.4356  0.0124 -0.1876
 3113SOL    HW1 9158   2.231   3.859   4.391  0.2536 -0.0819  1.5204
 3113SOL    HW2 9159   2.199   3.718   4.316 -0.1167  0.9717 -0.3751
 3114SOL     OW 9160   3.501   0.098   0.121 -0.8124 -0.4960 -0.3830
 3114SOL    HW1 9161   3.582   0.048   0.089 -0.9390 -1.1822  0.3436
 3114SOL    HW2 9162   3.441   0.115   0.043 -1.0086 -1.9542 -0.5830
 3115SOL     OW 9163   2.774   4.712   0.186 -0.1749 -0.6573  0.0205
 3115SOL    HW1 9164   2.806   4.710   0.280  0.9325  0.6705 -0.2843
 3115SOL    HW2 9165   2.844   4.755   0.128 -1.7906  0.7806 -0.9851
 3116SOL     OW 9166   1.153   4.136   3.524  0.0673 -0.4082 -0.1064
 3116SOL    HW1 9167   1.094   4.189   3.463 -1.4694  0.2324  1.8499
 3116SOL    HW2 9168   1.124   4.040   3.523 -0.7913 -0.1677  0.5497
 3117SOL     OW 9169   1.962   3.635   3.534 -0.2516 -0.7492 -0.3442
 3117SOL    HW1 9170   1.955   3.633   3.634  0.7432 -1.6471 -0.2729
 3117SOL    HW2 9171   1.871   3.623   3.494 -0.5512 -1.2379  0.4510
 3118SOL     OW 9172   3.477   4.383   0.151  0.3444  0.0382  0.0351
 3118SOL    HW1 9173   3.409   4.365   0.081  1.7928 -0.6337 -1.2688
 3118SOL    HW2 9174   3.434   4.381   0.241 -1.2023 -1.0404 -0.6915
 3119SOL     OW 9175   2.707   0.095   3.563 -0.7149  0.0635  0.0291
 3119SOL    HW1 9176   2.666   0.074   3.652  1.5728 -0.2301  1.0679
 3119SOL    HW2 9177   2.634   0.108   3.496 -2.4815 -0.7731  1.6783
 3120SOL     OW 9178   3.311   4.245   4.741  0.4275  0.0460 -0.4905
 3120SOL    HW1 9179   3.212   4.261   4.746  0.3707  0.2066 -1.8135
 3120SOL    HW2 9180   3.359   4.332   4.753  0.3638  0.1553 -1.0188
 3121SOL     OW 9181   2.564   3.998   0.181  0.3501  0.3550 -0.2345
 3121SOL    HW1 9182   2.500   4.052   0.236  0.4673  0.0787  0.1686
 3121SOL    HW2 9183   2.539   3.901   0.185  2.1091 -0.0765  1.7627
 3122SOL     OW 9184   3.433   4.492   4.754 -0.2782 -0.9052 -0.3693
 3122SOL    HW1 9185   3.438   4.556   4.677 -1.6039  1.0859  1.0793
 3122SOL    HW2 9186   3.525   4.470   4.785  0.3746  3.1358  1.1978
 3123SOL     OW 9187   3.313   5.023   3.750 -0.3181 -0.3162  0.3978
 3123SOL    HW1 9188   3.262   5.000   3.833 -0.9762  1.0807  0.3952
 3123SOL    HW2 9189   3.286   5.113   3.718  1.2691 -0.0737 -0.3215
 3124SOL     OW 9190   2.060   4.202   5.044  0.2832 -0.3887  0.7768
 3124SOL    HW1 9191   2.156   4.177   5.033  0.2282  0.0456 -0.8197
 3124SOL    HW2 9192   2.021   4.230   4.956 -1.0969  0.2097  1.5341
 3125SOL     OW 9193   2.979   3.579   4.565  0.5376  0.5221 -0.5886
 3125SOL    HW1 9194   3.016   3.666   4.599 -0.2344  0.4507  0.4925
 3125SOL    HW2 9195   2.975   3.581   4.465 -1.7824  2.7436 -0.5527
 3126SOL     OW 9196   2.297   0.732   0.039 -0.0587 -0.4521  0.6790
 3126SOL    HW1 9197   2.344   0.817   0.060 -0.3944  0.5000 -1.9887
 3126SOL    HW2 9198   2.318   0.705  -0.055 -1.7787 -2.0801  0.6971
 3127SOL     OW 9199   1.972   4.654   4.401  0.1175  0.1341  0.2938
 3127SOL    HW1 9200   2.053   4.687   4.450 -0.0775  0.6087  0.3073
 3127SOL    HW2 9201   1.980   4.677   4.304  0.1162 -0.0495  0.2497
 3128SOL     OW 9202   2.591   3.784   0.985 -0.0611  0.4141 -0.3478
 3128SOL    HW1 9203   2.594   3.874   1.028 -1.1666  0.0031  0.6615
 3128SOL    HW2 9204   2.663   3.777   0.916 -0.0693  2.1167 -0.5634
 3129SOL     OW 9205   3.061   4.698   3.928  0.3145 -0.1341 -0.6363
 3129SOL    HW1 9206   3.012   4.653   3.854  1.3088 -0.1740 -1.2880
 3129SOL    HW2 9207   3.077   4.633   4.002 -2.1352  0.3194  0.3826
 3130SOL     OW 9208   3.066   3.799   4.688 -0.3383 -0.0734 -0.2547
 3130SOL    HW1 9209   3.118   3.800   4.774  0.8482  0.5238 -0.9514
 3130SOL    HW2 9210   3.031   3.891   4.669  1.6746  0.4550 -1.7015
 3131SOL     OW 9211   2.649   3.647   0.310  0.7065 -0.3847  0.1927
 3131SOL    HW1 9212   2.570   3.681   0.360  1.3654  0.0846  0.9407
 3131SOL    HW2 9213   2.640   3.548   0.298 -0.8641 -0.1030 -1.3667
 3132SOL     OW 9214   3.518   2.749   4.731  0.3932  0.1208 -0.0539
 3132SOL    HW1 9215   3.423   2.779   4.744  0.2910 -0.2027 -0.0209
 3132SOL    HW2 9216   3.580   2.820   4.763  0.1747 -1.1575  3.7714
 3133SOL     OW 9217   0.997   4.958   3.749  0.4167 -0.2638 -0.2945
 3133SOL    HW1 9218   0.986   4.892   3.675 -3.1059 -1.1489  0.8338
 3133SOL    HW2 9219   0.970   5.049   3.716 -0.9749 -0.6229 -0.2215
 3134SOL     OW 9220   3.838   4.328   4.473  0.1838  0.0726  0.0847
 3134SOL    HW1 9221   3.868   4.411   4.521  1.9328 -0.8904  0.7313
 3134SOL    HW2 9222   3.783   4.272   4.535  0.4817 -0.0716  0.2207
 3135SOL     OW 9223   2.415   0.676   2.492 -0.0648  0.3849  0.1224
 3135SOL    HW1 9224   2.462   0.588   2.490 -1.8970 -0.7003  1.5832
 3135SOL    HW2 9225   2.476   0.745   2.532  0.5176 -0.8457  1.4513
 3136SOL     OW 9226   3.237   3.482   4.201 -0.5411 -0.1500  0.1715
 3136SOL    HW1 9227   3.326   3.450   4.170  0.2661  1.0334  1.1580
 3136SOL    HW2 9228   3.165   3.425   4.162  0.5574 -0.3087 -1.7221
 3137SOL     OW 9229   2.142   4.869   0.271  0.0187  0.5151 -0.0656
 3137SOL    HW1 9230   2.193   4.847   0.354 -2.3280 -1.8816  0.9012
 3137SOL    HW2 9231   2.084   4.949   0.288  0.7303  1.0142  0.0466
 3138SOL     OW 9232   1.765   3.935   4.261  0.3797  0.1191 -0.0000
 3138SOL    HW1 9233   1.672   3.922   4.297  1.2639  1.0462  2.8187
 3138SOL    HW2 9234   1.759   3.975   4.170 -2.0021  1.2901  0.5836
 3139SOL     OW 9235   2.778   3.496   4.981 -0.6711  0.1795  0.0359
 3139SOL    HW1 9236   2.691   3.501   5.029  0.5018  2.3685  2.1217
 3139SOL    HW2 9237   2.768   3.536   4.890 -1.7528  0.8591  0.4311
 3140SOL     OW 9238   2.878   2.794   4.637  0.0989  0.4070  0.2361
 3140SOL    HW1 9239   2.887   2.814   4.735  0.1088  0.9139  0.1338
 3140SOL    HW2 9240   2.922   2.866   4.584  2.8934 -1.4236 -0.1155
 3141SOL     OW 9241   1.430   3.481   4.871 -0.0927 -0.3099 -0.1181
 3141SOL    HW1 9242   1.444   3.526   4.783  1.5936  0.5598  0.5356
 3141SOL    HW2 9243   1.339   3.502   4.906 -1.0177 -1.1602 -1.8978
 3142SOL     OW 9244   3.684   0.454   0.727  0.6098 -0.2290  0.1902
 3142SOL    HW1 9245   3.726   0.469   0.817 -1.4154 -0.4525  1.2502
 3142SOL    HW2 9246   3.701   0.360   0.698 -0.1634 -0.7122  1.2076
 3143SOL     OW 9247   2.987   2.901   3.999  0.0505  0.0921 -0.8110
 3143SOL    HW1 9248   2.907   2.957   3.978 -0.0835 -0.3215 -1.4073
 3143SOL    HW2 9249   3.016   2.851   3.918 -1.1328 -2.3707  0.1599
 3144SOL     OW 9250   3.465   3.923   0.320  0.5996 -0.0138 -0.3406
 3144SOL    HW1 9251   3.467   3.848   0.255  0.4919 -0.7783  0.5089
 3144SOL    HW2 9252   3.558   3.960   0.331  1.3007 -2.0409  1.4449
 3145SOL     OW 9253   3.832   0.107   4.894  0.4854  0.2739 -0.5001
 3145SOL    HW1 9254   3.920   0.133   4.933  1.4113 -0.0742 -2.2692
 3145SOL    HW2 9255   3.844   0.076   4.800 -1.1224 -2.6236  0.1358
 3146SOL     OW 9256   3.197   4.656   0.095  0.4806  0.5253  0.7685
 3146SOL    HW1 9257   3.225   4.618   0.007  0.5866  0.0901  0.9872
 3146SOL    HW2 9258   3.178   4.581   0.159 -0.5469  0.8193  0.8215
 3147SOL     OW 9259   3.122   4.065   2.649  0.0917 -0.4200  0.8558
 3147SOL    HW1 9260   3.170   4.151   2.632 -2.8754  1.4038  1.0489
 3147SOL    HW2 9261   3.133   4.040   2.746  0.1583  0.2845  1.0358
 3148SOL     OW 9262   1.907   2.670   0.354  0.1761  0.3073  0.3317
 3148SOL    HW1 9263   1.807   2.677   0.355  0.1198 -0.0297 -1.0600
 3148SOL    HW2 9264   1.934   2.580   0.388  0.0211  0.4676  0.8889
 3149SOL     OW 9265   2.443   3.749   0.103  0.2462  0.3384  0.1968
 3149SOL    HW1 9266   2.530   3.759   0.054 -0.1666 -0.0454 -0.6406
 3149SOL    HW2 9267   2.447   3.666   0.159  0.7693  0.8493  0.9340
 3150SOL     OW 9268   2.265   3.443   0.058 -0.4049  0.0258 -0.2391
 3150SOL    HW1 9269   2.244   3.345   0.069 -0.8872  0.1731  0.1949
 3150SOL    HW2 9270   2.213   3.479  -0.019  0.8904 -0.3832 -1.3395
 3151SOL     OW 9271   3.778   5.014   0.625 -0.2953 -0.0092 -0.1550
 3151SOL    HW1 9272   3.830   5.084   0.675 -1.5434 -0.1114  1.3608
 3151SOL    HW2 9273   3.779   5.035   0.527  0.8207  1.1438  0.0787
 3152SOL     OW 9274   3.320   4.927   0.098 -0.2829 -0.4886 -0.2977
 3152SOL    HW1 9275   3.343   4.972   0.185  0.6253 -0.4717 -0.5338
 3152SOL    HW2 9276   3.284   4.836   0.116 -1.4235  0.0343  0.1525
 3153SOL     OW 9277   2.812   3.671   0.592 -0.2419  0.2541 -0.2421
 3153SOL    HW1 9278   2.833   3.678   0.495  2.1581 -0.6814  0.1472
 3153SOL    HW2 9279   2.726   3.623   0.605 -0.8323  0.8142 -1.8907
 3154SOL     OW 9280   3.593   4.660   3.430  0.5710 -0.3049  0.4745
 3154SOL    HW1 9281   3.496   4.680   3.442  0.4357 -1.8436  2.3817
 3154SOL    HW2 9282   3.605   4.597   3.353 -0.0092 -0.5434  0.5746
 3155SOL     OW 9283   1.629   3.740   3.161  0.2455 -0.8740 -0.1297
 3155SOL    HW1 9284   1.713   3.790   3.138 -0.6117  0.5347 -0.2937
 3155SOL    HW2 9285   1.638   3.698   3.251  1.0838 -0.6469 -0.1037
 3156SOL     OW 9286   2.449   4.582   5.051 -0.1630 -0.1911  0.8652
 3156SOL    HW1 9287   2.506   4.654   5.013 -2.1541  0.6080 -0.8133
 3156SOL    HW2 9288   2.355   4.616   5.062 -0.9325 -2.2101  0.9883
 3157SOL     OW 9289   4.027   4.379   0.445 -0.0655 -0.1538 -0.4075
 3157SOL    HW1 9290   4.019   4.318   0.524  1.7614  0.9907  0.7515
 3157SOL    HW2 9291   3.984   4.467   0.466  1.5650  0.6129 -0.1261
 3158SOL     OW 9292   1.917   4.047   3.899  0.0213 -0.0683  0.2330
 3158SOL    HW1 9293   1.993   3.984   3.913 -0.6713 -0.9819 -0.0026
 3158SOL    HW2 9294   1.934   4.132   3.949  0.7123 -0.6586  1.0355
 3159SOL     OW 9295   2.440   4.530   0.408  0.2664  0.0336  0.2427
 3159SOL    HW1 9296   2.401   4.466   0.474 -1.4056  0.4027 -0.3366
 3159SOL    HW2 9297   2.532   4.501   0.383 -0.3094 -1.9459  0.2661
 3160SOL     OW 9298   2.792   4.206   4.874 -0.4878 -0.3987 -0.1737
 3160SOL    HW1 9299   2.767   4.232   4.967 -1.4275 -1.6039 -0.0676
 3160SOL    HW2 9300   2.725   4.141   4.838  1.0382 -1.6584 -0.8727
 3161SOL     OW 9301   1.298   4.485   4.804  0.1024 -0.1166  0.2608
 3161SOL    HW1 9302   1.250   4.572   4.797  0.6158  0.0776 -0.9896
 3161SOL    HW2 9303   1.349   4.467   4.720  1.7985 -0.5704  1.3213
 3162SOL     OW 9304   2.491   4.658   4.409 -0.1707 -0.0794 -0.0054
 3162SOL    HW1 9305   2.488   4.576   4.352 -0.7491 -0.0082 -0.0830
 3162SOL    HW2 9306   2.538   4.637   4.495  1.5109  0.0410 -0.8543
 3163SOL     OW 9307   2.648   3.302   4.660 -0.6777 -0.2409 -0.2019
 3163SOL    HW1 9308   2.568   3.247   4.682 -0.0476 -0.3927  1.9603
 3163SOL    HW2 9309   2.726   3.243   4.641  0.0087 -0.1938  2.1557
 3164SOL     OW 9310   2.911   4.987   0.244  0.2989 -0.7726 -0.6436
 3164SOL    HW1 9311   2.964   4.941   0.173  0.1423 -0.5299 -0.9170
 3164SOL    HW2 9312   2.876   5.073   0.209  1.5041  0.0977  0.1955
 3165SOL     OW 9313   3.173   3.849   4.926 -0.1852  0.1518  0.4904
 3165SOL    HW1 9314   3.211   3.937   4.955 -0.0494 -0.0619  0.9712
 3165SOL    HW2 9315   3.164   3.789   5.005 -0.2852 -0.2653  0.1670
 3166SOL     OW 9316   2.411   3.768   0.402 -0.0646 -0.2995 -0.6187
 3166SOL    HW1 9317   2.337   3.834   0.392  0.6168  0.5057 -0.4885
 3166SOL    HW2 9318   2.377   3.686   0.448 -0.8727  0.0417 -0.5944
 3167SOL     OW 9319   1.816   3.925   4.899 -0.2459  0.5132 -0.1897
 3167SOL    HW1 9320   1.751   3.913   4.975  1.1764  1.2262  1.2115
 3167SOL    HW2 9321   1.835   4.023   4.886  0.1861  0.3449 -0.8874
 3168SOL     OW 9322   2.546   3.452   0.037 -0.4540  0.7302  0.0318
 3168SOL    HW1 9323   2.449   3.475   0.030 -0.2219  1.7358 -0.0657
 3168SOL    HW2 9324   2.573   3.445   0.133 -0.5956  0.5902  0.0599
 3169SOL     OW 9325   2.376   2.838   5.023 -0.0317 -0.0096 -0.1652
 3169SOL    HW1 9326   2.448   2.884   5.075  0.3789  0.2956 -0.9966
 3169SOL    HW2 9327   2.330   2.771   5.082  0.8171 -0.0949  0.4134
 3170SOL     OW 9328   2.132   3.704   3.032 -0.4458 -0.1541 -0.3439
 3170SOL    HW1 9329   2.067   3.630   3.015 -0.1167 -0.6993  0.6847
 3170SOL    HW2 9330   2.173   3.692   3.122 -0.2083  1.1576 -0.2580
 3171SOL     OW 9331   3.007   0.565   5.048  0.4095  0.7304 -0.6309
 3171SOL    HW1 9332   2.986   0.602   5.138 -0.4346  2.2427 -1.3929
 3171SOL    HW2 9333   2.925   0.569   4.990  1.0352  0.1974 -1.5853
 3172SOL     OW 9334   3.710   4.102   2.937  0.6748 -0.0452 -0.0948
 3172SOL    HW1 9335   3.775   4.163   2.982  0.8556  0.4201 -0.9638
 3172SOL    HW2 9336   3.698   4.019   2.992  2.7566 -0.5950 -0.4103
 3173SOL     OW 9337   2.018   4.385   3.080  0.1666  0.0027  0.1530
 3173SOL    HW1 9338   2.097   4.428   3.123 -0.7511  0.2637  1.6274
 3173SOL    HW2 9339   2.044   4.296   3.044  1.9457  1.4190 -2.3767
 3174SOL     OW 9340   1.869   4.933   4.131 -0.0990 -0.0317  0.1168
 3174SOL    HW1 9341   1.959   4.900   4.157  0.6294 -0.4300 -2.5709
 3174SOL    HW2 9342   1.868   5.033   4.131  0.1939 -0.0271  0.5457
 3175SOL     OW 9343   2.118   4.799   0.617 -0.3465 -0.4843  0.0668
 3175SOL    HW1 9344   2.029   4.761   0.642 -0.7945 -0.4300 -1.3458
 3175SOL    HW2 9345   2.169   4.823   0.700 -1.3605 -1.1562  0.9052
 3176SOL     OW 9346   3.537   3.995   5.069  0.0179 -0.6921 -0.6576
 3176SOL    HW1 9347   3.537   3.931   5.146 -0.0727  2.0683  1.8091
 3176SOL    HW2 9348   3.443   4.013   5.039 -0.3554  1.3228  1.4763
 3177SOL     OW 9349   2.407   4.218   4.069 -0.6131  0.4806 -0.4194
 3177SOL    HW1 9350   2.381   4.311   4.044  0.5941  1.2961  1.1488
 3177SOL    HW2 9351   2.365   4.194   4.156 -0.9887 -0.4932 -0.8562
 3178SOL     OW 9352   4.685   4.446   1.129 -0.1449 -0.4537 -0.1335
 3178SOL    HW1 9353   4.622   4.522   1.146 -2.2177 -1.8568 -1.0729
 3178SOL    HW2 9354   4.711   4.446   1.032  1.9009  0.4625  0.3512
 3179SOL     OW 9355   2.738   4.713   0.791  0.1853 -0.4381  0.3077
 3179SOL    HW1 9356   2.837   4.701   0.785 -0.0343 -2.8741  0.7908
 3179SOL    HW2 9357   2.716   4.811   0.789  2.5064  0.1214 -0.8438
 3180SOL     OW 9358   1.781   5.068   3.526 -0.7112 -0.3396 -0.2681
 3180SOL    HW1 9359   1.878   5.057   3.501 -0.5405  0.9191 -0.2428
 3180SOL    HW2 9360   1.724   5.041   3.448 -0.3339 -0.9279 -0.3451
 3181SOL     OW 9361   3.256   2.787   4.753 -0.2266  0.2709  0.2268
 3181SOL    HW1 9362   3.241   2.760   4.848 -0.4927 -0.8475 -0.1138
 3181SOL    HW2 9363   3.178   2.758   4.698 -1.3811  3.2864  0.0696
 3182SOL     OW 9364   2.276   4.821   0.829 -0.0213  0.0114 -0.1024
 3182SOL    HW1 9365   2.266   4.829   0.928  0.9551  1.6014 -0.0991
 3182SOL    HW2 9366   2.361   4.772   0.808  0.3980  0.7488 -0.1459
 3183SOL     OW 9367   2.221   4.297   3.489 -0.0936 -0.4426  0.3538
 3183SOL    HW1 9368   2.300   4.242   3.462  0.0372 -0.0847  0.0005
 3183SOL    HW2 9369   2.138   4.243   3.479 -0.0775 -0.2286 -1.0377
 3184SOL     OW 9370   3.024   3.926   0.398  0.1170 -0.4070 -0.2839
 3184SOL    HW1 9371   2.939   3.944   0.349 -0.6564 -0.0134  1.1723
 3184SOL    HW2 9372   3.100   3.969   0.349 -0.6141 -0.0845 -1.1706
 3185SOL     OW 9373   3.123   3.956   3.912  0.1104 -0.4292 -0.2881
 3185SOL    HW1 9374   3.154   3.867   3.948  0.4096 -0.5136 -0.7479
 3185SOL    HW2 9375   3.174   3.977   3.829  0.4558  0.4434  0.1297
 3186SOL     OW 9376   1.936   0.387   4.284 -0.3762 -0.0034 -0.4812
 3186SOL    HW1 9377   1.933   0.467   4.343 -1.0901 -1.0900  1.0348
 3186SOL    HW2 9378   1.995   0.405   4.205  2.0049  0.9376  1.4021
 3187SOL     OW 9379   3.683   4.470   3.228 -0.5405  0.2045 -0.1271
 3187SOL    HW1 9380   3.768   4.449   3.276  0.1687  1.8708 -0.5757
 3187SOL    HW2 9381   3.693   4.447   3.131 -0.2237  1.3376 -0.3723
 3188SOL     OW 9382   2.057   3.790   4.856  0.6652  0.4821  0.1766
 3188SOL    HW1 9383   2.125   3.837   4.912  1.4497 -1.1424  0.6478
 3188SOL    HW2 9384   1.966   3.822   4.881  1.0720  0.6449  1.5434
 3189SOL     OW 9385   1.636   0.077   4.200 -0.1084 -0.9195  0.2836
 3189SOL    HW1 9386   1.646   0.166   4.244 -1.6083 -0.6606  0.1420
 3189SOL    HW2 9387   1.687   0.008   4.253  0.9539 -0.0203  0.4638
 3190SOL     OW 9388   3.106   3.742   0.082 -0.0379  0.2346  0.4561
 3190SOL    HW1 9389   3.100   3.807   0.158 -1.6900  2.5631 -1.5195
 3190SOL    HW2 9390   3.023   3.687   0.078  0.7597 -1.0716  1.2779
 3191SOL     OW 9391   2.322   0.234   0.146  0.2642 -0.0154  0.5121
 3191SOL    HW1 9392   2.269   0.298   0.201 -0.6223 -0.9842  0.8222
 3191SOL    HW2 9393   2.273   0.146   0.141  1.4135 -0.6474  0.0480
 3192SOL     OW 9394   2.367   0.420   2.754 -0.3029 -0.7028 -0.0568
 3192SOL    HW1 9395   2.322   0.353   2.695 -0.8826 -0.7915  0.4701
 3192SOL    HW2 9396   2.347   0.512   2.720  0.6371 -0.7843 -0.8821
 3193SOL     OW 9397   2.624   4.896   0.589  0.4239  0.4034  0.4731
 3193SOL    HW1 9398   2.609   4.927   0.682  0.9317 -2.6620  1.6899
 3193SOL    HW2 9399   2.540   4.854   0.554  0.5922  0.4360  0.0230
 3194SOL     OW 9400   3.555   0.012   4.557  0.2428  0.0590 -0.2929
 3194SOL    HW1 9401   3.529  -0.062   4.619 -1.0659  1.6909  1.2110
 3194SOL    HW2 9402   3.513  -0.003   4.467 -0.8834 -0.5165  0.3054
 3195SOL     OW 9403   2.756   3.858   4.304 -0.0895  0.2587 -0.0245
 3195SOL    HW1 9404   2.772   3.925   4.377  1.5605  0.0262 -0.1294
 3195SOL    HW2 9405   2.658   3.840   4.297 -0.4160  1.3482  1.1722
 3196SOL     OW 9406   2.820   4.610   4.117 -0.2327 -0.4804 -0.0664
 3196SOL    HW1 9407   2.905   4.557   4.110  0.0767 -0.0780  0.5778
 3196SOL    HW2 9408   2.742   4.548   4.105  0.0918 -1.2944  1.5959
 3197SOL     OW 9409   2.897   2.915   4.895 -0.1358  0.3115  0.6075
 3197SOL    HW1 9410   2.843   2.936   4.977 -1.4364 -0.3838 -0.0259
 3197SOL    HW2 9411   2.965   2.986   4.880 -1.3813  1.6272  1.0344
 3198SOL     OW 9412   2.107   4.483   3.682 -0.0152 -0.3920  0.5886
 3198SOL    HW1 9413   2.008   4.480   3.690 -0.3223  0.8006 -1.8062
 3198SOL    HW2 9414   2.139   4.411   3.621  0.4302  0.0245  0.3129
 3199SOL     OW 9415   1.545   4.712   4.438 -0.4194  0.3079 -0.0410
 3199SOL    HW1 9416   1.490   4.716   4.355  0.4757  1.4524 -0.5974
 3199SOL    HW2 9417   1.550   4.803   4.480 -0.3227 -0.1234  0.9130
 3200SOL     OW 9418   3.702   1.251   4.922  0.3741  0.6152  0.2139
 3200SOL    HW1 9419   3.772   1.187   4.956  0.3743  1.0352  1.0444
 3200SOL    HW2 9420   3.692   1.240   4.824  0.5551 -0.4877  0.3029
 3201SOL     OW 9421   2.533   2.934   0.693  0.3499  0.4438 -0.3351
 3201SOL    HW1 9422   2.562   2.843   0.721 -0.7451 -0.0199 -0.6220
 3201SOL    HW2 9423   2.579   2.959   0.608  0.3119 -0.0533 -0.5090
 3202SOL     OW 9424   2.414   3.333   3.997  0.1649 -0.4742 -0.3366
 3202SOL    HW1 9425   2.377   3.372   3.912  0.3179  1.7316  0.5481
 3202SOL    HW2 9426   2.338   3.297   4.053 -0.0270 -1.0826 -0.9697
 3203SOL     OW 9427   2.068   0.438   4.730  0.5222 -0.2517  0.0324
 3203SOL    HW1 9428   2.076   0.535   4.751  1.4515 -0.2777 -0.1343
 3203SOL    HW2 9429   2.159   0.401   4.711  0.2467 -1.2859  0.6647
 3204SOL     OW 9430   4.159   3.130   1.259  0.0813 -0.2028 -0.1295
 3204SOL    HW1 9431   4.130   3.121   1.354  0.8931  0.8665  0.2493
 3204SOL    HW2 9432   4.151   3.042   1.212  1.4683 -1.2363  1.4660
 3205SOL     OW 9433   2.947   0.897   3.880  0.5770 -0.1374  0.0507
 3205SOL    HW1 9434   2.975   0.976   3.825  0.8166  0.0963  0.5032
 3205SOL    HW2 9435   2.991   0.902   3.969  1.1031 -1.1252 -0.1442
 3206SOL     OW 9436   3.090   5.055   2.984  0.1246 -0.4018 -0.1625
 3206SOL    HW1 9437   3.136   4.968   3.005  1.9831 -0.4651 -3.7617
 3206SOL    HW2 9438   3.024   5.042   2.911 -0.7602  0.9924  0.3312
 3207SOL     OW 9439   1.808   4.435   3.713 -0.2580 -0.2582  0.3237
 3207SOL    HW1 9440   1.720   4.433   3.666 -0.5226 -1.8320  0.8238
 3207SOL    HW2 9441   1.806   4.506   3.784 -0.5901  0.7013 -0.6254
 3208SOL     OW 9442   0.032   2.948   0.467  0.3413  0.2784  0.2174
 3208SOL    HW1 9443   0.127   2.977   0.471  0.9328 -1.1248 -2.0283
 3208SOL    HW2 9444   0.020   2.864   0.520  1.0835 -1.1498 -1.7571
 3209SOL     OW 9445   2.546   2.865   4.524 -0.1338  0.5317 -0.0049
 3209SOL    HW1 9446   2.507   2.788   4.474 -0.5241  0.2400  0.7368
 3209SOL    HW2 9447   2.511   2.866   4.617 -0.0824  1.5736  0.0183
 3210SOL     OW 9448   3.319   4.716   0.680  0.6364  0.1788  0.2963
 3210SOL    HW1 9449   3.362   4.788   0.627  0.3136  0.3026  0.1986
 3210SOL    HW2 9450   3.260   4.757   0.750 -0.1320  0.0085 -0.2453
 3211SOL     OW 9451   2.426   2.372   0.628  0.5930 -0.5725  0.2105
 3211SOL    HW1 9452   2.375   2.317   0.694 -0.2815 -0.6748 -0.5264
 3211SOL    HW2 9453   2.521   2.342   0.626  0.6489 -0.5015  1.4812
 3212SOL     OW 9454   2.335   0.101   3.045  0.0947 -0.3271  0.0460
 3212SOL    HW1 9455   2.346   0.064   3.137  1.0426 -0.1517  0.0125
 3212SOL    HW2 9456   2.381   0.041   2.979 -0.1244 -0.1753 -0.2457
 3213SOL     OW 9457   2.589   3.421   3.677  0.4936 -0.8823  0.3015
 3213SOL    HW1 9458   2.499   3.384   3.699  0.1356 -0.0374  0.2779
 3213SOL    HW2 9459   2.618   3.387   3.587 -0.3795 -0.1327 -0.2783
 3214SOL     OW 9460   2.357   4.149   4.593  0.3153  0.1246 -0.1933
 3214SOL    HW1 9461   2.340   4.223   4.659 -1.4793 -0.1533 -0.2805
 3214SOL    HW2 9462   2.440   4.100   4.619  1.0395  1.5991  0.3861
 3215SOL     OW 9463   3.322   3.253   3.458  0.8398 -0.0306 -0.6451
 3215SOL    HW1 9464   3.393   3.311   3.497  1.0669 -1.2322  0.8385
 3215SOL    HW2 9465   3.233   3.294   3.473  1.0703  0.4453 -0.5755
 3216SOL     OW 9466   1.307   4.612   4.066 -0.0580 -0.7894 -0.2000
 3216SOL    HW1 9467   1.314   4.515   4.046 -0.4264 -0.7167 -0.6787
 3216SOL    HW2 9468   1.231   4.652   4.015 -2.0685 -0.9143  2.4460
 3217SOL     OW 9469   4.078   0.720   1.268  0.0683 -0.3709  0.1876
 3217SOL    HW1 9470   4.059   0.705   1.366 -0.2804  1.4420  0.4264
 3217SOL    HW2 9471   4.159   0.776   1.258 -0.7965  0.8067 -0.4809
 3218SOL     OW 9472   3.340   1.103   4.711 -0.3874 -0.4848 -0.3882
 3218SOL    HW1 9473   3.379   1.063   4.794  0.5477 -1.3879 -1.2242
 3218SOL    HW2 9474   3.244   1.076   4.702 -0.5185 -0.3061  0.4300
 3219SOL     OW 9475   3.992   0.305   0.569  0.0741  0.5383  0.0798
 3219SOL    HW1 9476   3.898   0.293   0.536  0.2991 -0.1260 -0.3257
 3219SOL    HW2 9477   4.052   0.325   0.492  0.1909  1.4678  0.3988
 3220SOL     OW 9478   4.826   0.110   0.082  0.1042  0.5195  0.0504
 3220SOL    HW1 9479   4.796   0.017   0.059 -0.7240  0.4194  1.4266
 3220SOL    HW2 9480   4.884   0.145   0.008  0.7820 -1.2410 -0.3134
 3221SOL     OW 9481   0.661   0.574   4.933 -0.0544  0.1793 -0.0252
 3221SOL    HW1 9482   0.697   0.528   4.852  2.1263  1.4462  0.1443
 3221SOL    HW2 9483   0.644   0.670   4.913 -2.4189 -0.1313  0.2364
 3222SOL     OW 9484   0.282   1.176   0.412  0.0559  0.0077  0.2697
 3222SOL    HW1 9485   0.337   1.234   0.472  0.6013  1.0447 -1.1743
 3222SOL    HW2 9486   0.191   1.216   0.400 -0.2770 -0.5390  0.8890
 3223SOL     OW 9487   4.853   0.812   3.138 -0.2049  0.0507 -0.3999
 3223SOL    HW1 9488   4.797   0.862   3.072 -1.1047 -0.7693 -0.2923
 3223SOL    HW2 9489   4.931   0.770   3.091 -0.5312 -0.0624 -0.8528
 3224SOL     OW 9490   4.858   0.574   4.359  0.0726 -0.3876  0.0262
 3224SOL    HW1 9491   4.924   0.601   4.289 -0.3829  1.8574  0.4085
 3224SOL    HW2 9492   4.776   0.539   4.315  0.3357 -0.3278 -0.5243
 3225SOL     OW 9493   4.235   1.152   1.745 -0.2571  0.1292 -0.2505
 3225SOL    HW1 9494   4.200   1.061   1.767 -1.3450  0.8478  1.2021
 3225SOL    HW2 9495   4.209   1.177   1.652  0.3347 -1.1428 -0.7848
 3226SOL     OW 9496   3.608   0.850   0.958 -0.2329  0.6715 -0.7454
 3226SOL    HW1 9497   3.634   0.822   0.866  1.0486  0.2785 -0.2941
 3226SOL    HW2 9498   3.689   0.849   1.017 -1.0093  0.9981  0.3662
 3227SOL     OW 9499   4.153   0.646   1.522 -0.0906  0.0199  0.3501
 3227SOL    HW1 9500   4.132   0.559   1.478  0.7796  0.5785 -1.2547
 3227SOL    HW2 9501   4.140   0.638   1.620 -0.1647 -1.8682  0.2139
 3228SOL     OW 9502   4.387   2.042   1.357 -0.3313  0.0717 -0.3091
 3228SOL    HW1 9503   4.400   1.987   1.439 -0.6509  1.4688  0.7281
 3228SOL    HW2 9504   4.292   2.035   1.327 -0.1092 -0.7920 -0.8491
 3229SOL     OW 9505   4.478   1.924   2.350 -0.4797 -0.6326  0.0081
 3229SOL    HW1 9506   4.414   1.893   2.420 -0.0382 -1.2751  0.1332
 3229SOL    HW2 9507   4.429   1.935   2.263 -1.1711  0.8203  0.5511
 3230SOL     OW 9508   3.208   0.795   4.862  0.7303 -0.2106 -0.8015
 3230SOL    HW1 9509   3.207   0.701   4.897  1.7810  0.7806  2.1802
 3230SOL    HW2 9510   3.296   0.813   4.818  0.9011 -0.3198 -0.5055
 3231SOL     OW 9511   3.201   0.841   0.927  0.2046 -0.3473  0.5480
 3231SOL    HW1 9512   3.254   0.810   1.006  1.0872  0.5002  0.3035
 3231SOL    HW2 9513   3.262   0.884   0.860 -0.0777 -3.2546 -1.8060
 3232SOL     OW 9514   4.625   1.324   1.267 -0.4306 -0.2585  0.0916
 3232SOL    HW1 9515   4.632   1.404   1.207 -0.3327 -0.1424  0.2582
 3232SOL    HW2 9516   4.674   1.342   1.352 -0.1149 -0.6234 -0.0090
 3233SOL     OW 9517   4.756   0.849   0.000  0.3958  0.0430 -0.3247
 3233SOL    HW1 9518   4.768   0.869  -0.097  1.4453  0.4656 -0.1209
 3233SOL    HW2 9519   4.836   0.800   0.035 -0.5384 -1.2991  0.0444
 3234SOL     OW 9520   2.777   0.948   5.075 -0.3593 -0.0115  0.0949
 3234SOL    HW1 9521   2.771   1.044   5.046  0.4246 -0.1365 -0.4938
 3234SOL    HW2 9522   2.730   0.890   5.008  3.0734 -0.5098 -2.0966
 3235SOL     OW 9523   3.732   2.180   4.920  0.5726  0.3635  0.0036
 3235SOL    HW1 9524   3.760   2.193   5.016  0.9972  1.0377 -0.2051
 3235SOL    HW2 9525   3.634   2.201   4.911  1.1422  3.2913 -0.2438
 3236SOL     OW 9526   3.917   0.537   1.903  0.6044  0.1161 -0.0177
 3236SOL    HW1 9527   3.913   0.469   1.977 -0.3008  0.3183  0.1311
 3236SOL    HW2 9528   4.010   0.540   1.866  1.4587  0.9624  2.0011
 3237SOL     OW 9529   4.708   1.355   0.268  0.1748  0.1077 -0.2359
 3237SOL    HW1 9530   4.796   1.366   0.313  0.3199 -2.6461  0.3230
 3237SOL    HW2 9531   4.640   1.416   0.310  1.1600  0.2200  1.2541
 3238SOL     OW 9532   3.736   1.554   2.665  0.0823  0.2817 -0.2212
 3238SOL    HW1 9533   3.662   1.522   2.606  0.7373 -1.5672 -0.1073
 3238SOL    HW2 9534   3.816   1.494   2.653  1.3408  1.8319  0.1463
 3239SOL     OW 9535   4.517   5.070   0.483  0.2722  0.3535 -0.5036
 3239SOL    HW1 9536   4.447   5.130   0.522  1.5711  2.3789 -1.1028
 3239SOL    HW2 9537   4.506   5.067   0.384  0.0655 -0.6596 -0.4620
 3240SOL     OW 9538   4.470   1.041   1.873  0.3661  0.3085 -0.0226
 3240SOL    HW1 9539   4.417   1.109   1.821 -1.5440 -1.9278 -1.2155
 3240SOL    HW2 9540   4.434   1.036   1.966 -0.7604 -0.3326 -0.4733
 3241SOL     OW 9541   3.529   2.539   1.206 -0.0647 -0.0362 -0.2578
 3241SOL    HW1 9542   3.491   2.493   1.286  0.6318 -0.2893 -0.0645
 3241SOL    HW2 9543   3.567   2.628   1.233  0.7661 -0.4057 -0.1682
 3242SOL     OW 9544   4.136   0.384   3.024  0.1987 -0.1807 -0.1007
 3242SOL    HW1 9545   4.148   0.288   3.050 -0.4102 -1.0460 -2.7733
 3242SOL    HW2 9546   4.064   0.391   2.956  0.8553  2.0815 -0.6244
 3243SOL     OW 9547   4.499   0.390   1.102  0.2029 -0.0927  0.4419
 3243SOL    HW1 9548   4.545   0.473   1.133  0.5667 -1.0212  2.5774
 3243SOL    HW2 9549   4.440   0.411   1.024  1.5660  1.8092 -0.1407
 3244SOL     OW 9550   0.567   5.056   0.292  0.5482 -0.2541 -0.2254
 3244SOL    HW1 9551   0.571   5.104   0.205 -0.3837 -1.4305 -0.9535
 3244SOL    HW2 9552   0.471   5.050   0.322  0.7936 -0.4271  0.5377
 3245SOL     OW 9553   4.520   0.672   1.593 -0.5074  0.2267 -0.2487
 3245SOL    HW1 9554   4.589   0.710   1.532  0.2144 -1.9086 -0.8634
 3245SOL    HW2 9555   4.513   0.729   1.675  4.0283 -0.8115  1.1710
 3246SOL     OW 9556   0.331   0.307   0.030  0.1728  0.1420 -0.2050
 3246SOL    HW1 9557   0.350   0.395  -0.012 -0.0871 -0.4888 -1.6904
 3246SOL    HW2 9558   0.245   0.312   0.081  0.0836  0.6978 -0.4070
 3247SOL     OW 9559   4.398   4.832   0.853 -0.4677 -0.2499  0.8909
 3247SOL    HW1 9560   4.367   4.806   0.762 -1.4581 -0.5373  1.3032
 3247SOL    HW2 9561   4.437   4.924   0.850  0.6479 -0.7250 -0.0547
 3248SOL     OW 9562   0.605   0.258   0.194  0.2903  0.1847  0.1914
 3248SOL    HW1 9563   0.676   0.289   0.131  0.8823  0.2650  0.8879
 3248SOL    HW2 9564   0.521   0.241   0.143  0.2386  1.9178 -0.3778
 3249SOL     OW 9565   4.215   1.147   0.058 -0.2724  0.2830  0.8861
 3249SOL    HW1 9566   4.165   1.104   0.134  0.3834  0.0461  1.1871
 3249SOL    HW2 9567   4.277   1.217   0.094 -1.0574  1.2440  0.4305
 3250SOL     OW 9568   4.077   1.631   1.807  0.2752  0.6316 -0.8900
 3250SOL    HW1 9569   4.005   1.592   1.749 -1.7168  0.9316  1.2122
 3250SOL    HW2 9570   4.062   1.730   1.814  1.2648  0.7835 -0.8523
 3251SOL     OW 9571   3.442   1.594   4.881  0.7031 -0.4800 -0.2453
 3251SOL    HW1 9572   3.443   1.688   4.846  1.5518 -0.5419 -0.4023
 3251SOL    HW2 9573   3.416   1.531   4.808 -1.8646 -0.2057  0.3372
 3252SOL     OW 9574   4.696   0.817   1.433  0.3615  0.2745  0.0637
 3252SOL    HW1 9575   4.776   0.869   1.404  0.2675 -0.5068 -1.6790
 3252SOL    HW2 9576   4.627   0.880   1.469  1.4993  1.0110  1.0157
 3253SOL     OW 9577   0.851   2.986   3.378 -0.4164  0.3768 -0.0010
 3253SOL    HW1 9578   0.812   2.913   3.321  0.6692 -0.2307 -0.0141
 3253SOL    HW2 9579   0.807   2.985   3.468 -1.2587  0.5077 -0.4034
 3254SOL     OW 9580   4.647   0.987   0.526  0.0455  0.1913  0.0295
 3254SOL    HW1 9581   4.588   1.015   0.450 -1.2915 -0.3342  0.8411
 3254SOL    HW2 9582   4.592   0.946   0.598  1.1877  1.2589  1.5934
 3255SOL     OW 9583   0.400   1.325   2.276 -0.4308  0.4998  0.6853
 3255SOL    HW1 9584   0.450   1.267   2.340  1.3949  0.7516 -0.4372
 3255SOL    HW2 9585   0.465   1.375   2.219 -1.9544  0.2779 -1.3611
 3256SOL     OW 9586   3.513   1.051   4.907  0.3075 -0.5528  0.1446
 3256SOL    HW1 9587   3.577   1.127   4.918  1.6015 -1.3688 -1.3314
 3256SOL    HW2 9588   3.558   0.965   4.930 -0.2672 -1.1478 -0.8730
 3257SOL     OW 9589   3.842   2.217   1.965  0.6276  0.1963 -0.0423
 3257SOL    HW1 9590   3.781   2.162   2.021 -1.0977  0.9778 -1.0814
 3257SOL    HW2 9591   3.869   2.166   1.884 -0.4305  0.6055 -0.6693
 3258SOL     OW 9592   0.454   2.148   4.904 -0.3231  0.0575  0.2256
 3258SOL    HW1 9593   0.355   2.140   4.913 -0.2832  0.1116  0.7365
 3258SOL    HW2 9594   0.494   2.176   4.992  0.2236 -0.6724  0.2185
 3259SOL     OW 9595   4.152   0.337   2.424 -0.1667  1.0328 -0.6612
 3259SOL    HW1 9596   4.086   0.268   2.392  0.7075  0.1294 -0.5714
 3259SOL    HW2 9597   4.189   0.386   2.345 -0.9916  1.5947 -0.7075
 3260SOL     OW 9598   0.568   1.556   0.359 -0.2967 -0.1362 -0.6734
 3260SOL    HW1 9599   0.621   1.535   0.277  0.1222 -0.1167 -0.4117
 3260SOL    HW2 9600   0.589   1.649   0.391 -1.4635  0.3694 -1.3038
 3261SOL     OW 9601   0.407   0.821   0.215  0.3667 -0.3525 -0.6623
 3261SOL    HW1 9602   0.308   0.808   0.209 -0.2522  3.1936 -0.2371
 3261SOL    HW2 9603   0.450   0.734   0.240 -2.8511 -1.5435  1.4539
 3262SOL     OW 9604   4.566   0.609   0.387  0.3592 -0.0964 -0.1439
 3262SOL    HW1 9605   4.662   0.600   0.416  0.0112 -1.4516  0.6458
 3262SOL    HW2 9606   4.561   0.676   0.313  1.9007  0.0968 -0.1241
 3263SOL     OW 9607   4.760   1.913   5.004  0.3377 -0.2675 -0.3941
 3263SOL    HW1 9608   4.811   1.971   4.940 -1.3971 -0.1971 -1.7986
 3263SOL    HW2 9609   4.686   1.867   4.955 -1.1345 -0.1408  1.5916
 3264SOL     OW 9610   4.812   4.475   4.507  0.2979  0.0743 -0.7820
 3264SOL    HW1 9611   4.806   4.380   4.540  0.1829  0.4202  0.2283
 3264SOL    HW2 9612   4.721   4.515   4.504  0.3515  0.1742 -1.1777
 3265SOL     OW 9613   4.185   0.785   0.183  0.0923 -0.0436  0.3993
 3265SOL    HW1 9614   4.112   0.741   0.234 -0.2462  1.4877  1.3097
 3265SOL    HW2 9615   4.168   0.883   0.178  2.7202  0.5975  1.8395
 3266SOL     OW 9616   0.729   1.857   3.727 -0.2839  0.0592 -0.1227
 3266SOL    HW1 9617   0.787   1.923   3.680 -0.6041 -1.2012 -2.4243
 3266SOL    HW2 9618   0.634   1.888   3.724 -0.4106 -0.3869 -1.0494
 3267SOL     OW 9619   0.359   1.863   1.388 -0.0941  0.5093 -0.2001
 3267SOL    HW1 9620   0.435   1.873   1.324  1.0993  0.3160  1.1269
 3267SOL    HW2 9621   0.312   1.776   1.370  1.1448 -0.2514  0.1047
 3268SOL     OW 9622   3.915   2.844   4.751 -0.2463  0.8992  0.1596
 3268SOL    HW1 9623   3.937   2.760   4.802  0.6577  1.9169  1.5109
 3268SOL    HW2 9624   3.973   2.850   4.670  1.4786  1.4057  1.3864
 3269SOL     OW 9625   4.425   1.189   1.385 -0.0948 -0.0475 -0.2402
 3269SOL    HW1 9626   4.500   1.249   1.356  1.1264 -0.4684  1.7571
 3269SOL    HW2 9627   4.463   1.111   1.435 -1.8690  0.1777  1.6350
 3270SOL     OW 9628   4.824   0.581   0.851  0.1658 -0.1202  0.0863
 3270SOL    HW1 9629   4.787   0.488   0.854  3.0708 -1.3934  1.7812
 3270SOL    HW2 9630   4.813   0.624   0.941 -0.5302  0.9248 -0.4877
 3271SOL     OW 9631   4.041   0.414   4.633  0.3693 -0.7179  0.2521
 3271SOL    HW1 9632   4.116   0.479   4.648 -1.1359  1.0156  0.7507
 3271SOL    HW2 9633   4.003   0.387   4.722 -1.6508  1.0480  0.0089
 3272SOL     OW 9634   4.023   1.492   1.453  0.2346 -0.0800 -0.1764
 3272SOL    HW1 9635   4.066   1.582   1.445 -0.0802 -0.0201 -1.2773
 3272SOL    HW2 9636   3.951   1.496   1.522 -2.9907  1.8356 -3.3190
 3273SOL     OW 9637   4.550   0.774   1.844 -0.4375  0.2021  0.4054
 3273SOL    HW1 9638   4.594   0.733   1.924  0.2218 -0.1661 -0.1307
 3273SOL    HW2 9639   4.564   0.873   1.844  0.7815  0.0406  0.0194
 3274SOL     OW 9640   4.578   1.279   0.760  0.2007  0.1166 -0.0696
 3274SOL    HW1 9641   4.588   1.181   0.749  0.0847  0.1316 -0.3177
 3274SOL    HW2 9642   4.632   1.326   0.690 -0.2602  0.2189 -0.3575
 3275SOL     OW 9643   4.862   1.437   0.827 -0.0270  0.1370 -0.2006
 3275SOL    HW1 9644   4.901   1.466   0.914 -0.6132 -0.1940  0.1822
 3275SOL    HW2 9645   4.817   1.348   0.839  0.1205 -0.0372 -0.9030
 3276SOL     OW 9646   4.224   1.161   0.584  0.2528  0.3137  0.3138
 3276SOL    HW1 9647   4.174   1.180   0.668 -1.2334 -0.8567 -0.2620
 3276SOL    HW2 9648   4.175   1.199   0.506  0.2825 -0.7591 -0.2533
 3277SOL     OW 9649   4.050   1.771   0.701 -0.9186 -0.1963  0.2420
 3277SOL    HW1 9650   3.995   1.853   0.719 -0.7175 -0.2552  1.1847
 3277SOL    HW2 9651   4.093   1.741   0.786  0.6686 -0.0877 -0.4863
 3278SOL     OW 9652   4.296   1.483   2.268  0.0793 -0.1710 -0.5225
 3278SOL    HW1 9653   4.221   1.514   2.211 -0.5877 -0.9687 -0.0954
 3278SOL    HW2 9654   4.374   1.457   2.210  0.1762  1.0230 -0.9429
 3279SOL     OW 9655   4.683   4.904   1.941  0.1166 -0.2250 -0.4277
 3279SOL    HW1 9656   4.694   4.804   1.933 -1.7373 -0.4734 -0.4329
 3279SOL    HW2 9657   4.645   4.926   2.031 -0.8976  0.3180 -0.9732
 3280SOL     OW 9658   4.939   1.757   4.162  0.0661 -0.3110  0.1289
 3280SOL    HW1 9659   4.952   1.663   4.192  1.4082 -0.5925 -1.2540
 3280SOL    HW2 9660   4.914   1.758   4.065 -1.1812  0.7158  0.4332
 3281SOL     OW 9661   4.882   5.028   0.972 -0.4522  0.1583 -0.3275
 3281SOL    HW1 9662   4.963   4.979   0.938 -0.4251 -0.3194  0.3977
 3281SOL    HW2 9663   4.850   5.092   0.903  0.6931  0.5193 -0.5439
 3282SOL     OW 9664   4.150   0.430   1.145 -0.0382  0.0503 -0.1641
 3282SOL    HW1 9665   4.123   0.524   1.167  1.3942 -0.0037  2.1568
 3282SOL    HW2 9666   4.214   0.431   1.069 -1.0548  0.7921 -1.0489
 3283SOL     OW 9667   4.952   1.101   0.182  0.0569 -0.0799  0.1235
 3283SOL    HW1 9668   5.007   1.127   0.102 -0.8231  0.4681 -0.3225
 3283SOL    HW2 9669   4.859   1.080   0.153 -0.3220  0.2983  1.0237
 3284SOL     OW 9670   3.453   0.904   3.713  0.1655  0.0647 -0.2357
 3284SOL    HW1 9671   3.417   0.811   3.722 -0.7428  0.4640  0.4693
 3284SOL    HW2 9672   3.526   0.917   3.781 -0.5788  0.2503  0.5530
 3285SOL     OW 9673   4.478   2.544   1.790  0.2296 -0.1567  0.2376
 3285SOL    HW1 9674   4.467   2.545   1.889 -0.8730 -4.6438  0.3718
 3285SOL    HW2 9675   4.566   2.502   1.767 -0.1917 -0.5853 -0.6380
 3286SOL     OW 9676   0.124   0.740   0.231  0.3011 -0.5160 -0.1121
 3286SOL    HW1 9677   0.171   0.653   0.248  3.1732  0.9986  0.2571
 3286SOL    HW2 9678   0.137   0.801   0.309  2.0435  1.7167 -1.9959
 3287SOL     OW 9679   0.004   1.405   1.828  0.0942  0.2857  0.0889
 3287SOL    HW1 9680  -0.048   1.328   1.792 -1.8209  0.8613  1.4704
 3287SOL    HW2 9681  -0.026   1.490   1.785 -0.7220  0.7147  1.4366
 3288SOL     OW 9682   4.306   1.321   1.193  0.0429  0.3193  0.1194
 3288SOL    HW1 9683   4.348   1.248   1.248  0.8349  0.4770 -0.2594
 3288SOL    HW2 9684   4.359   1.334   1.109  0.5931  2.1172  0.7122
 3289SOL     OW 9685   4.489   1.051   4.352  0.1486 -0.3749 -0.1704
 3289SOL    HW1 9686   4.533   1.103   4.279  0.9907 -0.2712  0.4008
 3289SOL    HW2 9687   4.432   1.112   4.407  0.1570 -0.2958 -0.2494
 3290SOL     OW 9688   4.305   1.863   2.160 -0.3315 -0.5976 -0.5376
 3290SOL    HW1 9689   4.284   1.876   2.063 -0.7867 -1.2825 -0.5402
 3290SOL    HW2 9690   4.231   1.811   2.203 -0.0758 -0.3973  0.1528
 3291SOL     OW 9691   4.298   1.465   0.748 -0.3223  0.4157 -0.0011
 3291SOL    HW1 9692   4.362   1.457   0.824  1.6076 -0.0171 -1.5852
 3291SOL    HW2 9693   4.241   1.384   0.743  0.3115 -0.0584  0.3290
 3292SOL     OW 9694   3.381   0.974   2.402 -0.1714 -0.1296  0.0605
 3292SOL    HW1 9695   3.398   0.887   2.448 -0.2608 -0.5485 -0.6818
 3292SOL    HW2 9696   3.305   1.021   2.446  1.1439  0.5167  1.7270
 3293SOL     OW 9697   3.729   1.261   4.649 -0.1036 -0.2002  0.3723
 3293SOL    HW1 9698   3.647   1.253   4.591  0.7918 -2.0780 -0.7287
 3293SOL    HW2 9699   3.767   1.353   4.639 -2.1090  0.7737  1.0217
 3294SOL     OW 9700   4.677   0.298   4.151 -0.1913  0.1516  0.3922
 3294SOL    HW1 9701   4.607   0.285   4.081  0.6921  1.6358 -0.8194
 3294SOL    HW2 9702   4.662   0.232   4.225 -0.2085 -2.6100 -1.8832
 3295SOL     OW 9703   4.443   0.734   0.012  0.1146 -0.4343  0.0155
 3295SOL    HW1 9704   4.518   0.774   0.063  0.0853  0.4145 -0.5880
 3295SOL    HW2 9705   4.358   0.742   0.065 -0.0905  1.2606 -0.5038
 3296SOL     OW 9706   0.051   0.972   4.993 -0.1837 -0.2164 -0.1735
 3296SOL    HW1 9707   0.034   1.067   5.019  0.0613  0.0475 -0.9468
 3296SOL    HW2 9708  -0.010   0.912   5.045  0.1693  0.2969  0.8591
 3297SOL     OW 9709   5.020   4.836   2.228  0.0682  0.6619  0.2625
 3297SOL    HW1 9710   5.022   4.919   2.284 -0.8730  0.6727  0.2878
 3297SOL    HW2 9711   4.930   4.793   2.235  0.8113 -0.8633  0.9813
 3298SOL     OW 9712   4.575   1.203   2.566 -0.0553 -0.2071 -0.4577
 3298SOL    HW1 9713   4.626   1.165   2.488  1.0277  0.2413  0.0067
 3298SOL    HW2 9714   4.629   1.191   2.649 -0.4733  0.7867 -0.0288
 3299SOL     OW 9715   4.328   0.122   0.601 -0.0157 -0.3157 -0.0428
 3299SOL    HW1 9716   4.317   0.090   0.695 -0.2331 -0.1447 -0.0089
 3299SOL    HW2 9717   4.322   0.222   0.600 -1.8038 -0.4069 -0.4781
 3300SOL     OW 9718   3.867   1.495   5.022  0.3748  0.1111 -0.1485
 3300SOL    HW1 9719   3.869   1.581   4.972 -0.6889  0.5301  0.4780
 3300SOL    HW2 9720   3.830   1.423   4.964 -1.4703  0.7342  0.1658
 3301SOL     OW 9721   0.864   0.589   1.173 -0.9186  0.2798  0.1472
 3301SOL    HW1 9722   0.946   0.620   1.126 -0.8449 -0.2319 -0.0668
 3301SOL    HW2 9723   0.830   0.505   1.130 -0.6818 -0.3667  1.1769
 3302SOL     OW 9724   3.305   1.041   4.049 -0.0327  0.3994  0.2497
 3302SOL    HW1 9725   3.379   1.091   4.005  0.3394 -0.2589  0.1263
 3302SOL    HW2 9726   3.294   1.074   4.143  0.3536  0.5639  0.2392
 3303SOL     OW 9727   4.816   0.341   1.292 -0.0555 -0.2634 -0.2239
 3303SOL    HW1 9728   4.792   0.362   1.386  1.2454 -0.8058  0.2511
 3303SOL    HW2 9729   4.804   0.243   1.275  3.3305 -0.9443  0.5877
 3304SOL     OW 9730   0.291   2.282   0.691 -0.3620  0.0804  0.1253
 3304SOL    HW1 9731   0.307   2.212   0.622 -0.1497  0.7793 -0.5418
 3304SOL    HW2 9732   0.375   2.336   0.704 -0.3606 -0.1227  1.0207
 3305SOL     OW 9733   4.356   1.031   0.799 -0.3965 -0.1406  0.2552
 3305SOL    HW1 9734   4.449   1.032   0.834 -0.5734 -2.3722  0.9481
 3305SOL    HW2 9735   4.349   1.092   0.720  2.1614 -1.3796 -1.0435
 3306SOL     OW 9736   4.224   4.843   0.319  0.0303  0.4219  0.5190
 3306SOL    HW1 9737   4.209   4.870   0.414 -1.4015 -1.0755  0.7561
 3306SOL    HW2 9738   4.212   4.744   0.310  0.1796  0.5364 -1.2153
 3307SOL     OW 9739   0.273   4.969   0.073  0.2263  0.0925 -0.0695
 3307SOL    HW1 9740   0.281   4.980   0.172 -0.0623 -0.7836  0.0650
 3307SOL    HW2 9741   0.319   5.044   0.027  1.1775  0.0107  0.7243
 3308SOL     OW 9742   3.542   1.154   0.350 -0.2603  0.1749  0.4471
 3308SOL    HW1 9743   3.456   1.169   0.301  0.6693  1.9365 -0.7563
 3308SOL    HW2 9744   3.592   1.240   0.357  2.2310 -1.1063 -0.4492
 3309SOL     OW 9745   4.051   1.282   1.053  0.0518  0.2200  0.1358
 3309SOL    HW1 9746   4.136   1.278   1.106  0.7139  1.1487 -0.8067
 3309SOL    HW2 9747   4.006   1.194   1.056  1.7502 -0.7199 -0.4361
 3310SOL     OW 9748   4.062   0.330   2.008  0.1095  0.0858  0.0233
 3310SOL    HW1 9749   3.973   0.284   2.001 -0.2711  0.9467 -1.3780
 3310SOL    HW2 9750   4.116   0.308   1.927  1.4252 -0.8850  1.1379
 3311SOL     OW 9751   1.058   1.070   4.930 -0.6500  0.7210 -0.1336
 3311SOL    HW1 9752   0.969   1.043   4.894 -1.4319  0.6612  1.7078
 3311SOL    HW2 9753   1.047   1.100   5.025  1.5512 -0.9973  0.7413
 3312SOL     OW 9754   4.357   1.260   0.260 -0.6174 -0.2089  0.1704
 3312SOL    HW1 9755   4.284   1.273   0.328 -2.7289  1.3081 -2.2025
 3312SOL    HW2 9756   4.413   1.343   0.256 -1.2171  0.1660 -0.6955
 3313SOL     OW 9757   0.061   0.140   1.450 -0.1138 -0.0471  0.3550
 3313SOL    HW1 9758   0.066   0.129   1.350  0.4583 -1.5840  0.5249
 3313SOL    HW2 9759  -0.035   0.140   1.477 -0.2858  0.7059 -0.2261
 3314SOL     OW 9760   0.252   1.301   1.793  0.3367 -0.3125  0.0834
 3314SOL    HW1 9761   0.266   1.209   1.757  0.3142 -0.0494 -0.6235
 3314SOL    HW2 9762   0.154   1.317   1.805  0.1946  0.1889 -1.4184
 3315SOL     OW 9763   1.105   1.162   2.704 -0.3940 -0.3563  0.1792
 3315SOL    HW1 9764   1.157   1.244   2.677 -0.9557  0.6918  2.0887
 3315SOL    HW2 9765   1.135   1.133   2.795 -0.7740 -1.8305 -0.1446
 3316SOL     OW 9766   4.536   4.452   1.727 -0.2441 -0.3029 -0.1447
 3316SOL    HW1 9767   4.477   4.375   1.751 -1.3519  1.1957  2.3380
 3316SOL    HW2 9768   4.632   4.423   1.732 -0.6423 -1.9715 -1.2208
 3317SOL     OW 9769   3.684   2.119   0.936 -0.0184 -0.0553  0.0197
 3317SOL    HW1 9770   3.635   2.163   0.861  0.3528  0.4029  0.0435
 3317SOL    HW2 9771   3.653   2.158   1.023 -1.2346 -1.3267  0.2029
 3318SOL     OW 9772   2.630   1.671   1.695 -0.1120 -0.3248 -0.0967
 3318SOL    HW1 9773   2.723   1.704   1.682  0.4469  0.2802  4.0075
 3318SOL    HW2 9774   2.632   1.585   1.746 -1.7024  1.2829  2.9441
 3319SOL     OW 9775   3.554   1.134   2.240 -0.2796 -0.1291 -0.0297
 3319SOL    HW1 9776   3.494   1.070   2.289  0.0316 -0.3060  0.1272
 3319SOL    HW2 9777   3.647   1.126   2.276 -0.4144  1.0812  0.6421
 3320SOL     OW 9778   4.090   5.020   0.492 -0.2403  0.3371  0.2226
 3320SOL    HW1 9779   4.116   5.116   0.507  0.4170  0.2458 -0.3309
 3320SOL    HW2 9780   4.074   4.976   0.581 -1.1357  1.1117  0.4674
 3321SOL     OW 9781   0.011   0.369   1.880 -0.1101 -0.1239  0.4587
 3321SOL    HW1 9782  -0.003   0.458   1.838  2.7300  0.4931  0.5873
 3321SOL    HW2 9783   0.070   0.313   1.821 -1.6912 -1.8880  0.4646
 3322SOL     OW 9784   3.291   1.689   0.011  0.3884 -0.0623 -0.4028
 3322SOL    HW1 9785   3.283   1.635   0.095 -0.7241  1.2176  0.3628
 3322SOL    HW2 9786   3.378   1.670  -0.034  0.8106 -1.0908  0.8193
 3323SOL     OW 9787   3.838   1.482   1.956  0.0650  0.1368  0.0598
 3323SOL    HW1 9788   3.882   1.496   1.867 -2.6002  0.8628 -1.2840
 3323SOL    HW2 9789   3.843   1.566   2.010  3.3406 -0.8540  1.5251
 3324SOL     OW 9790   4.425   4.963   2.781 -0.4960 -0.4614 -0.3129
 3324SOL    HW1 9791   4.424   4.926   2.688  0.1377 -0.5332 -0.2964
 3324SOL    HW2 9792   4.407   5.062   2.778  0.7312 -0.2283 -0.6373
 3325SOL     OW 9793   5.027   0.597   0.676 -0.1548 -0.2857 -0.8453
 3325SOL    HW1 9794   5.017   0.692   0.647 -0.1582  0.4500  1.3521
 3325SOL    HW2 9795   4.945   0.569   0.726 -0.5626 -1.7931 -2.2983
 3326SOL     OW 9796   4.481   0.414   4.735  0.1589 -0.1154 -0.0735
 3326SOL    HW1 9797   4.441   0.346   4.797 -0.5824 -0.6214 -1.0826
 3326SOL    HW2 9798   4.483   0.503   4.780  0.3692 -0.6262  0.9664
 3327SOL     OW 9799   3.749   1.250   1.594 -0.4168 -0.1040 -0.4617
 3327SOL    HW1 9800   3.666   1.200   1.618 -0.9117  0.4462 -0.9779
 3327SOL    HW2 9801   3.821   1.185   1.569 -0.9760 -0.5736 -0.9037
 3328SOL     OW 9802   0.573   0.519   1.921 -0.0138 -0.3091  0.1871
 3328SOL    HW1 9803   0.550   0.517   2.019  0.7425  1.1199  0.4333
 3328SOL    HW2 9804   0.489   0.523   1.867 -0.4450  1.4481  0.9128
 3329SOL     OW 9805   4.329   2.316   2.078 -0.3184  0.2631  0.4115
 3329SOL    HW1 9806   4.242   2.304   2.126 -0.3013 -0.4629  0.2793
 3329SOL    HW2 9807   4.404   2.320   2.145 -0.5697  2.4696  0.6344
 3330SOL     OW 9808   4.340   1.571   1.834 -0.0756  0.0900 -0.3237
 3330SOL    HW1 9809   4.407   1.612   1.772  0.0330  0.3460 -0.0457
 3330SOL    HW2 9810   4.248   1.594   1.804 -0.0133  1.7333  0.5776
 3331SOL     OW 9811   4.869   3.133   2.669  0.0897 -0.5828  0.0549
 3331SOL    HW1 9812   4.947   3.082   2.632 -1.5717 -3.3353  0.0017
 3331SOL    HW2 9813   4.793   3.130   2.604 -1.0507 -0.6347  1.3249
 3332SOL     OW 9814   4.225   0.053   4.303 -0.2605 -1.1524  0.0640
 3332SOL    HW1 9815   4.175   0.048   4.216  0.9938 -0.7615 -0.7099
 3332SOL    HW2 9816   4.210   0.143   4.344 -0.0282 -0.9558 -0.2732
 3333SOL     OW 9817   0.025   1.244   0.351 -0.5469  0.1770 -0.0159
 3333SOL    HW1 9818  -0.032   1.322   0.376 -0.8004 -0.4036  1.3330
 3333SOL    HW2 9819  -0.032   1.174   0.306 -0.4083  0.5672 -0.8141
 3334SOL     OW 9820   2.568   1.962   1.169 -0.2614 -0.1304 -0.2752
 3334SOL    HW1 9821   2.470   1.955   1.191 -0.3525 -2.5580 -1.1025
 3334SOL    HW2 9822   2.621   1.945   1.252 -0.5701 -0.5394 -0.1529
 3335SOL     OW 9823   4.290   0.911   1.247 -0.2848 -0.5854 -0.1472
 3335SOL    HW1 9824   4.352   0.863   1.184  0.3563  1.1418 -0.8868
 3335SOL    HW2 9825   4.344   0.962   1.314 -0.9550 -0.7570  0.5323
 3336SOL     OW 9826   4.515   0.987   1.544  0.2587 -0.2557 -0.1388
 3336SOL    HW1 9827   4.421   0.959   1.563  0.6246 -1.6154 -0.2256
 3336SOL    HW2 9828   4.542   1.059   1.608 -1.6070  1.9014 -1.6185
 3337SOL     OW 9829   0.291   1.425   0.008 -0.8073  0.0747  0.3278
 3337SOL    HW1 9830   0.279   1.348  -0.054 -1.4940  0.7387 -0.3905
 3337SOL    HW2 9831   0.203   1.445   0.053 -0.3109 -0.4205  1.5454
 3338SOL     OW 9832   4.261   4.573   0.095 -0.2161 -0.0282 -0.2281
 3338SOL    HW1 9833   4.210   4.502   0.045 -0.4508 -0.1647  0.1929
 3338SOL    HW2 9834   4.254   4.555   0.194 -1.1087  1.1327 -0.0624
 3339SOL     OW 9835   3.912   1.722   0.353 -0.1115  0.1257 -0.6689
 3339SOL    HW1 9836   3.815   1.726   0.328 -0.6888 -1.7061  1.0514
 3339SOL    HW2 9837   3.927   1.649   0.419  2.4775  0.3663 -0.8764
 3340SOL     OW 9838   3.885   1.139   2.758  0.0227  0.2680  0.2955
 3340SOL    HW1 9839   3.848   1.089   2.679 -0.8296  1.5262 -0.1308
 3340SOL    HW2 9840   3.815   1.147   2.829 -0.3405  2.0028 -0.2037
 3341SOL     OW 9841   4.777   0.368   1.558 -0.0729  0.4403  0.1431
 3341SOL    HW1 9842   4.835   0.441   1.593 -1.5623  0.6442  2.4288
 3341SOL    HW2 9843   4.682   0.398   1.559 -0.6748 -1.3501  0.7276
 3342SOL     OW 9844   3.374   1.374   1.771 -0.5231 -0.3071 -0.4448
 3342SOL    HW1 9845   3.422   1.315   1.836 -2.2145 -0.5251  0.6578
 3342SOL    HW2 9846   3.362   1.465   1.811 -1.1509 -0.3000 -0.6425
 3343SOL     OW 9847   0.932   0.840   4.588  0.3210  0.0390 -0.4508
 3343SOL    HW1 9848   1.020   0.835   4.634 -0.1223 -0.2822  0.3796
 3343SOL    HW2 9849   0.934   0.784   4.505  0.7035 -0.4684 -0.1033
 3344SOL     OW 9850   0.236   0.481   0.284 -0.1220 -0.5651 -0.2457
 3344SOL    HW1 9851   0.257   0.430   0.368 -0.4994 -0.6892 -0.2282
 3344SOL    HW2 9852   0.163   0.435   0.234 -0.8425  0.2384  0.0381
 3345SOL     OW 9853   4.750   1.399   1.476  0.6481  0.3780  0.4061
 3345SOL    HW1 9854   4.733   1.497   1.484  0.8662  0.5054 -0.5039
 3345SOL    HW2 9855   4.848   1.382   1.475  0.6155  0.0537  1.4481
 3346SOL     OW 9856   4.524   2.748   4.891  0.0324  0.7763 -0.4821
 3346SOL    HW1 9857   4.447   2.808   4.911 -2.0202 -2.0893  0.9678
 3346SOL    HW2 9858   4.501   2.688   4.814 -0.9415 -2.5875  2.1740
 3347SOL     OW 9859   3.208   1.525   1.607 -0.1613 -0.3400  0.3736
 3347SOL    HW1 9860   3.238   1.440   1.652 -1.2250 -0.5514  0.7052
 3347SOL    HW2 9861   3.288   1.578   1.580  0.5521 -1.7852 -0.5077
 3348SOL     OW 9862   4.542   4.032   1.399 -0.3371 -0.0671  0.1054
 3348SOL    HW1 9863   4.531   3.954   1.338  3.0748 -0.2606 -0.4214
 3348SOL    HW2 9864   4.513   4.116   1.352 -0.6081 -0.5733 -0.6460
 3349SOL     OW 9865   0.219   0.572   0.668  0.2150 -0.1654  0.3911
 3349SOL    HW1 9866   0.282   0.622   0.728 -0.9700 -0.3477  1.8621
 3349SOL    HW2 9867   0.125   0.600   0.688 -0.2599 -0.7161 -0.9625
 3350SOL     OW 9868   3.505   1.124   4.494  0.1761  0.1457 -0.6658
 3350SOL    HW1 9869   3.434   1.111   4.424  0.2877  0.5377 -0.8512
 3350SOL    HW2 9870   3.467   1.099   4.583 -0.9394  2.4545 -0.4184
 3351SOL     OW 9871   3.303   1.210   1.460  0.4728 -0.1755 -0.5824
 3351SOL    HW1 9872   3.370   1.284   1.459  1.1202 -0.7565 -0.6508
 3351SOL    HW2 9873   3.325   1.143   1.389  0.8808 -1.2899  0.5562
 3352SOL     OW 9874   0.334   0.701   1.100 -0.2149 -0.3481 -0.5351
 3352SOL    HW1 9875   0.406   0.757   1.141 -1.7571  1.1182  0.3020
 3352SOL    HW2 9876   0.318   0.620   1.158  1.0551 -0.9665 -1.0012
 3353SOL     OW 9877   3.929   1.229   2.003 -0.1483  0.9280  0.8280
 3353SOL    HW1 9878   3.883   1.147   1.970  1.7984  0.0482  0.1604
 3353SOL    HW2 9879   3.889   1.310   1.960 -0.5240  0.1402 -0.3379
 3354SOL     OW 9880   0.288   0.785   5.009 -1.0851  0.0902  0.0614
 3354SOL    HW1 9881   0.361   0.848   5.038 -0.7434 -0.8215  1.2490
 3354SOL    HW2 9882   0.201   0.835   5.005 -0.5774  0.9655 -0.4384
 3355SOL     OW 9883   3.834   1.141   0.239  0.1057 -0.2867 -0.6944
 3355SOL    HW1 9884   3.882   1.229   0.240  1.5863 -1.0481  1.2101
 3355SOL    HW2 9885   3.753   1.146   0.298 -1.3717  0.5272 -2.6786
 3356SOL     OW 9886   4.879   2.268   4.973 -0.3423  0.2053 -0.3055
 3356SOL    HW1 9887   4.784   2.286   4.997  0.0724  0.7790  0.9910
 3356SOL    HW2 9888   4.919   2.351   4.934 -0.0648  0.3163  0.2069
 3357SOL     OW 9889   5.083   1.756   4.947 -0.4428 -0.0736  0.8546
 3357SOL    HW1 9890   5.118   1.678   4.896 -1.0561  0.1232  0.1148
 3357SOL    HW2 9891   5.060   1.727   5.041 -1.5670 -1.0324  0.3183
 3358SOL     OW 9892   4.780   1.154   4.775  0.6953  0.4692 -0.2921
 3358SOL    HW1 9893   4.735   1.112   4.697  0.2912 -0.5802  0.4901
 3358SOL    HW2 9894   4.872   1.116   4.786  1.0400  1.1569 -0.6824
 3359SOL     OW 9895   0.819   0.569   4.443 -0.1647  0.2740 -0.3642
 3359SOL    HW1 9896   0.890   0.514   4.398 -1.2073 -1.4583 -0.0069
 3359SOL    HW2 9897   0.807   0.655   4.394  2.7830  1.0534  0.0874
 3360SOL     OW 9898   4.092   0.905   1.792 -0.1544 -0.3476 -0.4198
 3360SOL    HW1 9899   4.005   0.862   1.769 -0.7919  0.9489 -0.5043
 3360SOL    HW2 9900   4.143   0.846   1.855 -0.8683 -1.3440 -0.7653
 3361SOL     OW 9901   4.801   2.547   0.952 -0.3118 -0.0330 -0.1644
 3361SOL    HW1 9902   4.735   2.510   1.017  0.4724 -2.4351 -0.6122
 3361SOL    HW2 9903   4.888   2.500   0.963  0.8619  1.8970 -0.7064
 3362SOL     OW 9904   2.872   1.755   1.587  0.2829  0.0854 -0.6059
 3362SOL    HW1 9905   2.928   1.674   1.569 -1.4224 -1.3261  0.1916
 3362SOL    HW2 9906   2.917   1.812   1.656  1.2037 -0.4738 -0.7290
 3363SOL     OW 9907   0.595   0.471   4.345 -0.1950  0.6652  0.3013
 3363SOL    HW1 9908   0.564   0.527   4.268 -0.9451  1.0350  0.8612
 3363SOL    HW2 9909   0.680   0.509   4.382 -0.5242  1.2530  0.4698
 3364SOL     OW 9910   3.540   4.019   0.954  0.0782 -0.3805  0.0938
 3364SOL    HW1 9911   3.453   4.043   0.996 -0.1924 -1.3576  0.1094
 3364SOL    HW2 9912   3.538   4.044   0.857 -0.5270 -1.0967 -0.0937
 3365SOL     OW 9913   0.561   0.979   2.088 -0.3158  0.2458 -0.0377
 3365SOL    HW1 9914   0.545   1.072   2.056 -2.3831 -0.1127 -0.2108
 3365SOL    HW2 9915   0.475   0.941   2.123  0.8363 -1.0201  1.5881
 3366SOL     OW 9916   3.858   4.992   0.316 -0.2473  0.1216 -0.0630
 3366SOL    HW1 9917   3.853   4.940   0.231 -2.5667  0.4397 -0.1894
 3366SOL    HW2 9918   3.947   4.978   0.358 -0.2794 -2.8615 -0.7588
 3367SOL     OW 9919   0.402   0.969   1.785  0.4451 -0.0475  0.6361
 3367SOL    HW1 9920   0.425   0.921   1.701  0.8677 -1.1983  1.3833
 3367SOL    HW2 9921   0.455   1.053   1.792 -1.4519  1.4268 -1.4591
 3368SOL     OW 9922   3.669   2.020   2.089 -0.0954 -0.3207 -0.1604
 3368SOL    HW1 9923   3.595   2.061   2.142 -1.6412 -3.0081 -0.0280
 3368SOL    HW2 9924   3.631   1.952   2.026  2.3133 -2.7411  0.8113
 3369SOL     OW 9925   3.543   1.378   1.460 -1.2386 -0.3601  0.2622
 3369SOL    HW1 9926   3.599   1.322   1.520 -1.3010 -0.8508 -0.1261
 3369SOL    HW2 9927   3.589   1.388   1.372 -0.2997  1.8546  0.9608
 3370SOL     OW 9928   4.866   1.663   0.064  0.1136 -0.1306 -0.7482
 3370SOL    HW1 9929   4.925   1.620   0.132 -1.7578 -0.0761  1.0159
 3370SOL    HW2 9930   4.822   1.592   0.009  0.4752 -0.2450 -0.8945
 3371SOL     OW 9931   4.143   4.993   2.616 -0.3381 -0.5872 -0.3587
 3371SOL    HW1 9932   4.218   5.004   2.550  0.1808 -0.3798  0.2573
 3371SOL    HW2 9933   4.131   4.895   2.636  1.2092 -0.5159  1.1441
 3372SOL     OW 9934   3.459   4.794   3.128 -0.3718  0.4287 -0.0688
 3372SOL    HW1 9935   3.497   4.836   3.210 -0.0525 -1.1493  0.6320
 3372SOL    HW2 9936   3.495   4.839   3.047 -0.8653  2.1609  0.6331
 3373SOL     OW 9937   3.663   1.083   2.896  0.3513  0.3440  0.1027
 3373SOL    HW1 9938   3.699   0.994   2.924 -0.9099 -0.1509  0.1997
 3373SOL    HW2 9939   3.647   1.139   2.977 -1.7256 -0.4835  0.3331
 3374SOL     OW 9940   4.497   1.124   3.745  0.2364  0.2927 -0.0714
 3374SOL    HW1 9941   4.469   1.220   3.747  1.7562  0.7559  0.4082
 3374SOL    HW2 9942   4.543   1.104   3.659 -0.9109 -0.2923 -0.5810
 3375SOL     OW 9943   4.872   5.049   2.700  0.3642 -0.1810 -0.1089
 3375SOL    HW1 9944   4.831   5.112   2.634 -0.2587 -0.2156  0.2385
 3375SOL    HW2 9945   4.870   5.089   2.791 -0.8421 -1.0358  0.2705
 3376SOL     OW 9946   0.002   2.496   3.249 -0.0403  0.0565  0.1284
 3376SOL    HW1 9947  -0.047   2.490   3.161  1.8102  3.4463 -1.3511
 3376SOL    HW2 9948   0.062   2.417   3.259 -1.6597 -1.3670 -0.6616
 3377SOL     OW 9949   4.151   2.143   3.123 -0.2057  0.2137 -0.2663
 3377SOL    HW1 9950   4.052   2.130   3.123 -0.2655 -0.2431  2.9520
 3377SOL    HW2 9951   4.174   2.216   3.188  1.5927  0.4922 -1.1583
 3378SOL     OW 9952   5.074   2.045   2.763  0.5876  0.0667  0.3146
 3378SOL    HW1 9953   5.058   2.021   2.667  0.9450  1.9357 -0.2600
 3378SOL    HW2 9954   4.991   2.029   2.816 -0.0035  0.1650 -0.5592
 3379SOL     OW 9955   3.273   0.405   4.410  0.3492 -0.0661 -0.3409
 3379SOL    HW1 9956   3.209   0.482   4.408 -0.7474 -0.7992  2.3955
 3379SOL    HW2 9957   3.355   0.431   4.460  0.1543 -0.5410  0.2313
 3380SOL     OW 9958   3.934   0.590   3.088 -0.2291 -0.7301 -0.4137
 3380SOL    HW1 9959   3.917   0.505   3.040  2.4483 -1.1933 -0.7179
 3380SOL    HW2 9960   3.935   0.666   3.023 -0.5580 -0.7601 -0.4559
 3381SOL     OW 9961   3.812   0.355   2.673  0.0361 -0.2308 -0.3737
 3381SOL    HW1 9962   3.816   0.271   2.619 -0.5743 -0.9332  0.6161
 3381SOL    HW2 9963   3.741   0.415   2.636 -0.6093 -0.8512 -0.1722
 3382SOL     OW 9964   3.867   1.760   2.035 -0.2802  0.1769 -0.5184
 3382SOL    HW1 9965   3.932   1.802   1.971  0.5018 -1.7935 -1.0895
 3382SOL    HW2 9966   3.876   1.803   2.125  0.5528  1.1267 -1.0336
 3383SOL     OW 9967   4.541   1.582   3.571 -0.4653  0.9147  0.1895
 3383SOL    HW1 9968   4.585   1.644   3.635 -0.7512  0.4853  0.8101
 3383SOL    HW2 9969   4.505   1.503   3.620 -2.2971  1.4478 -0.2363
 3384SOL     OW 9970   4.146   1.300   2.412 -0.5577  0.5597  0.0630
 3384SOL    HW1 9971   4.212   1.339   2.347  1.3238 -1.5164  0.6145
 3384SOL    HW2 9972   4.068   1.263   2.361  0.3575 -0.0396 -0.9512
 3385SOL     OW 9973   4.193   1.404   2.808 -0.2107  0.1589  0.4990
 3385SOL    HW1 9974   4.177   1.307   2.825 -1.6470 -0.0384 -1.5745
 3385SOL    HW2 9975   4.197   1.453   2.895  1.6470 -1.8631  1.6521
 3386SOL     OW 9976   4.355   3.100   4.481 -0.2372  0.2546  0.2439
 3386SOL    HW1 9977   4.435   3.097   4.421 -1.1970  1.0494 -1.1427
 3386SOL    HW2 9978   4.342   3.011   4.524  0.8859 -0.1346 -0.1857
 3387SOL     OW 9979   4.044   2.097   2.332 -0.1554  0.1228 -0.5471
 3387SOL    HW1 9980   4.094   2.086   2.418 -0.0076 -0.3976 -0.6949
 3387SOL    HW2 9981   4.105   2.137   2.263 -0.4269  1.0408 -0.2672
 3388SOL     OW 9982   4.053   4.961   1.942  0.3775  0.0322  0.3964
 3388SOL    HW1 9983   4.022   4.949   1.848  1.9354 -3.2622  0.1334
 3388SOL    HW2 9984   4.153   4.973   1.942  0.6599 -1.9607  1.6455
 3389SOL     OW 9985   3.296   1.761   1.344  0.3524  0.0531  0.5247
 3389SOL    HW1 9986   3.325   1.715   1.428 -0.2252  0.5666  1.0144
 3389SOL    HW2 9987   3.199   1.745   1.329  0.1940  0.9090  0.5750
 3390SOL     OW 9988   4.170   1.922   3.995 -0.4559 -0.4206 -0.1916
 3390SOL    HW1 9989   4.075   1.931   3.964 -0.7017 -1.4208  0.2443
 3390SOL    HW2 9990   4.230   1.916   3.916 -1.0179 -2.3321 -0.5237
 3391SOL     OW 9991   4.965   1.166   2.620 -0.3448  0.1477 -0.0757
 3391SOL    HW1 9992   4.975   1.076   2.579  1.9979 -0.0486  0.7618
 3391SOL    HW2 9993   4.886   1.167   2.681 -0.8965 -1.0509 -0.7509
 3392SOL     OW 9994   0.558   1.008   2.948  0.4901  0.2079 -0.2493
 3392SOL    HW1 9995   0.469   0.964   2.954  0.7516 -0.4791 -1.2125
 3392SOL    HW2 9996   0.575   1.037   2.854  0.5569  1.9217  0.2429
 3393SOL     OW 9997   0.282   0.532   1.672 -0.7695  0.0479 -0.4567
 3393SOL    HW1 9998   0.324   0.444   1.652 -0.2823 -0.0926  1.0465
 3393SOL    HW2 9999   0.184   0.528   1.651 -0.4698 -0.3304 -1.8818
 3394SOL     OW10000   4.839   1.537   2.683  0.2944  0.0532  0.1824
 3394SOL    HW110001   4.938   1.546   2.681  0.1530  1.7493 -0.5760
 3394SOL    HW210002   4.802   1.552   2.591 -0.6957 -0.2442  0.5179
 3395SOL     OW10003   4.157   3.468   4.256 -0.0251  0.2528  0.3332
 3395SOL    HW110004   4.168   3.404   4.332  0.9709 -0.8305 -0.6882
 3395SOL    HW210005   4.060   3.477   4.235 -0.3249  0.6991  1.8322
 3396SOL     OW10006   3.107   0.686   3.040  1.1067 -0.7782  0.9198
 3396SOL    HW110007   3.046   0.634   2.980 -1.4871 -0.7201  3.2975
 3396SOL    HW210008   3.173   0.623   3.082  1.2372 -1.2429  0.0536
 3397SOL     OW10009   4.302   4.148   3.188 -0.1161 -0.4310 -0.1148
 3397SOL    HW110010   4.295   4.188   3.096 -0.0176  0.3227  0.1934
 3397SOL    HW210011   4.395   4.116   3.204 -0.8094 -3.4181 -1.3965
 3398SOL     OW10012   4.463   2.020   2.814 -0.6156  0.1579 -0.1807
 3398SOL    HW110013   4.381   2.074   2.830 -0.3808  0.3540  0.4088
 3398SOL    HW210014   4.458   1.936   2.869 -0.4763  0.1157 -0.2326
 3399SOL     OW10015   4.081   2.945   4.554  0.5127  0.2555  0.5877
 3399SOL    HW110016   4.168   2.899   4.572 -0.6723 -2.4369 -0.1629
 3399SOL    HW210017   4.058   2.938   4.457 -1.2414 -0.4546  1.0123
 3400SOL     OW10018   4.809   1.047   4.066  0.3477 -0.4004 -0.2730
 3400SOL    HW110019   4.743   1.119   4.088  0.9539  0.6072 -1.6120
 3400SOL    HW210020   4.765   0.977   4.010 -0.0509 -0.7074  0.4105
 3401SOL     OW10021   4.390   1.155   3.245  0.0380 -0.1182  0.3769
 3401SOL    HW110022   4.472   1.107   3.277  0.1902  0.3010  0.6239
 3401SOL    HW210023   4.404   1.185   3.151  0.2860  0.2181  0.5211
 3402SOL     OW10024   4.754   0.686   2.302  0.6019  0.0540 -0.6151
 3402SOL    HW110025   4.841   0.643   2.325  0.6876  0.2543 -0.5619
 3402SOL    HW210026   4.732   0.755   2.371  0.4540  0.0803 -0.6876
 3403SOL     OW10027   3.091   0.278   2.846  0.3344  0.4041 -0.5451
 3403SOL    HW110028   3.140   0.263   2.760  2.4166 -1.6854  0.9266
 3403SOL    HW210029   3.156   0.291   2.921 -1.4086  0.5550  1.0190
 3404SOL     OW10030   3.087   2.617   4.580 -0.0998  0.2246 -0.0731
 3404SOL    HW110031   3.049   2.539   4.629  0.4160  0.6885  1.1050
 3404SOL    HW210032   3.014   2.684   4.562 -0.6993 -0.8046 -1.7388
 3405SOL     OW10033   0.078   0.807   1.608  0.7209 -0.0540  0.0081
 3405SOL    HW110034   0.110   0.846   1.521 -1.8513  0.2691 -0.8882
 3405SOL    HW210035   0.057   0.881   1.672 -0.0757 -0.1311 -0.1482
 3406SOL     OW10036   4.515   4.074   2.673 -0.4654  0.5547  0.2520
 3406SOL    HW110037   4.569   4.101   2.753 -1.4285  0.4265  0.9684
 3406SOL    HW210038   4.574   4.069   2.593  0.2210  2.3517  0.5899
 3407SOL     OW10039   4.068   1.553   3.224  0.6460  0.0513 -0.1686
 3407SOL    HW110040   4.099   1.645   3.245  1.4287 -0.2492  0.0510
 3407SOL    HW210041   4.146   1.490   3.225  0.4242 -0.3192 -2.1062
 3408SOL     OW10042   4.465   1.729   2.868 -0.1149 -0.7317  0.4222
 3408SOL    HW110043   4.554   1.736   2.823  0.2578 -2.3026  0.8532
 3408SOL    HW210044   4.397   1.694   2.804 -0.5259  0.7623  0.0037
 3409SOL     OW10045   3.908   3.014   3.075  0.4485 -0.3658 -0.1409
 3409SOL    HW110046   3.863   2.930   3.043 -0.4367  0.3717 -0.8916
 3409SOL    HW210047   3.963   2.993   3.155  0.3119 -1.6859 -0.3585
 3410SOL     OW10048   4.881   2.065   2.956 -0.0622 -0.0147 -0.8775
 3410SOL    HW110049   4.845   1.977   2.986  0.4564 -0.5342 -1.7177
 3410SOL    HW210050   4.806   2.129   2.942 -0.2758  0.7213  2.7262
 3411SOL     OW10051   3.746   1.498   3.885 -0.2864  0.1863  0.0520
 3411SOL    HW110052   3.828   1.512   3.940  0.8166  2.4422 -1.9638
 3411SOL    HW210053   3.741   1.402   3.857  1.3736 -0.1275  0.6756
 3412SOL     OW10054   0.037   0.873   1.972 -0.1390  0.2642 -0.2366
 3412SOL    HW110055  -0.037   0.881   2.039  0.2198 -0.2072  0.2226
 3412SOL    HW210056   0.033   0.783   1.929 -0.7084  0.7584 -1.2754
 3413SOL     OW10057   5.021   0.692   3.454  0.0957  0.2191 -0.9857
 3413SOL    HW110058   4.925   0.691   3.484  0.0703 -0.7942 -1.0600
 3413SOL    HW210059   5.064   0.776   3.485 -0.6120  0.3356 -0.2704
 3414SOL     OW10060   4.483   3.002   3.046  0.3109  0.3488  0.4650
 3414SOL    HW110061   4.486   3.025   3.143 -2.3108  2.3548  0.1690
 3414SOL    HW210062   4.504   3.084   2.992 -1.6467  0.1739 -0.6384
 3415SOL     OW10063   3.982   2.987   3.388 -0.2741 -0.2752  0.8677
 3415SOL    HW110064   3.883   2.982   3.398 -0.4974  1.6440  0.0368
 3415SOL    HW210065   4.024   2.905   3.427 -2.0966 -0.6084  2.2591
 3416SOL     OW10066   4.437   2.742   4.325  0.3941 -0.7638  0.0668
 3416SOL    HW110067   4.400   2.807   4.258  3.6227  0.0185 -1.1229
 3416SOL    HW210068   4.418   2.648   4.295  0.8399 -0.4043 -1.3911
 3417SOL     OW10069   3.668   0.590   3.147  0.0872 -0.1514 -0.0108
 3417SOL    HW110070   3.652   0.638   3.233  0.2593 -0.5197  0.2279
 3417SOL    HW210071   3.699   0.497   3.166  0.1338 -0.2312 -0.4710
 3418SOL     OW10072   3.856   0.367   2.935 -0.3602 -0.0441  0.1825
 3418SOL    HW110073   3.837   0.344   2.839 -0.6418  0.6607  0.0604
 3418SOL    HW210074   3.782   0.334   2.992 -0.3677 -0.1517  0.1112
 3419SOL     OW10075   3.971   0.696   3.983  0.2630  0.0674  0.5721
 3419SOL    HW110076   3.912   0.703   3.903  1.2378  0.5853 -0.1138
 3419SOL    HW210077   4.000   0.601   3.994  0.6502  0.1055 -0.0776
 3420SOL     OW10078   4.065   1.216   3.455 -0.0874  0.2706  0.4611
 3420SOL    HW110079   4.072   1.207   3.356  0.6838  1.0212  0.4323
 3420SOL    HW210080   4.055   1.126   3.496 -0.0358 -0.0768 -0.2741
 3421SOL     OW10081   4.260   3.331   3.892  0.0655 -0.3133 -0.0870
 3421SOL    HW110082   4.167   3.328   3.928  0.1407 -1.1880  0.0506
 3421SOL    HW210083   4.293   3.426   3.891 -1.4518  0.2502 -1.7436
 3422SOL     OW10084   3.713   0.323   3.189  0.8216 -0.4064  0.1577
 3422SOL    HW110085   3.798   0.281   3.221  0.2304 -1.7430  0.0381
 3422SOL    HW210086   3.637   0.259   3.202  0.0618  0.2031 -1.0776
 3423SOL     OW10087   4.213   0.291   1.797 -0.0173  0.6834 -0.3684
 3423SOL    HW110088   4.309   0.288   1.826 -0.3261  0.8122  0.7225
 3423SOL    HW210089   4.195   0.217   1.732  0.4423 -0.3839  0.6736
 3424SOL     OW10090   3.333   0.379   2.922 -0.4343 -0.1653  0.1223
 3424SOL    HW110091   3.397   0.434   2.868  0.5550 -0.5133  0.9198
 3424SOL    HW210092   3.318   0.422   3.011 -0.0342 -0.9138  0.5618
 3425SOL     OW10093   0.207   1.073   2.561  0.4196 -0.3732 -0.4775
 3425SOL    HW110094   0.247   1.004   2.501 -2.0304 -1.7884 -0.6064
 3425SOL    HW210095   0.109   1.056   2.570  0.7681 -1.2546  5.1391
 3426SOL     OW10096   4.737   1.493   3.342  0.2343 -0.8414  0.7755
 3426SOL    HW110097   4.684   1.535   3.416 -1.0737 -2.8712  1.0641
 3426SOL    HW210098   4.676   1.471   3.266  1.0046 -1.5615  0.3572
 3427SOL     OW10099   4.335   1.871   3.133  0.1669 -0.4627 -0.3376
 3427SOL    HW110100   4.375   1.780   3.146 -1.1703 -0.8649  1.3386
 3427SOL    HW210101   4.236   1.865   3.142 -0.0200  1.0184 -1.1952
 3428SOL     OW10102   3.955   1.347   2.620 -0.6220  0.1045 -0.4377
 3428SOL    HW110103   4.054   1.341   2.614 -0.6553 -0.7020 -0.2993
 3428SOL    HW210104   3.920   1.274   2.680 -1.3952 -0.4612 -1.5256
 3429SOL     OW10105   4.793   0.776   2.736 -0.1199  0.0981 -0.1189
 3429SOL    HW110106   4.771   0.679   2.738 -0.5550  0.0751 -2.5579
 3429SOL    HW210107   4.892   0.787   2.727 -0.0657 -0.1163  0.2009
 3430SOL     OW10108   4.715   1.119   1.915 -0.4127 -0.3406  0.0021
 3430SOL    HW110109   4.741   1.192   1.979  0.7069 -1.1076  0.4644
 3430SOL    HW210110   4.622   1.089   1.934 -0.1634 -0.4304  1.1842
 3431SOL     OW10111   4.161   1.120   2.862 -0.0561  0.4223 -0.3218
 3431SOL    HW110112   4.068   1.151   2.842 -1.0699 -1.3905  1.1992
 3431SOL    HW210113   4.188   1.050   2.796 -0.2220  0.1489 -0.1007
 3432SOL     OW10114   3.742   4.647   2.855  0.1228 -0.3789  0.3935
 3432SOL    HW110115   3.736   4.591   2.772  0.2742  0.6831 -0.3624
 3432SOL    HW210116   3.687   4.605   2.927 -0.7338 -0.8862 -0.5136
 3433SOL     OW10117   1.046   0.395   3.006  0.6264 -0.0693  0.6676
 3433SOL    HW110118   1.038   0.370   2.909  0.9222 -1.0162  0.8842
 3433SOL    HW210119   1.112   0.335   3.051  1.8544  1.5089  1.0586
 3434SOL     OW10120   5.001   2.506   4.858  0.1725 -0.3560 -0.4877
 3434SOL    HW110121   5.077   2.530   4.919 -0.3000  0.4814 -0.2124
 3434SOL    HW210122   4.947   2.588   4.838 -0.7038 -0.9480 -0.6131
 3435SOL     OW10123   3.744   1.946   3.529  0.2540  0.0730  0.0152
 3435SOL    HW110124   3.758   1.924   3.432  1.6071  0.6702  0.0545
 3435SOL    HW210125   3.718   1.863   3.578 -1.5030 -0.0392 -1.0225
 3436SOL     OW10126   4.906   2.657   3.372 -0.0885 -0.0440 -0.4957
 3436SOL    HW110127   4.851   2.702   3.302  1.7451  0.1541 -1.8751
 3436SOL    HW210128   4.979   2.605   3.329  1.7005  0.8603  1.2878
 3437SOL     OW10129   0.515   5.058   1.996  0.1586  0.0812  0.0732
 3437SOL    HW110130   0.494   5.026   1.904 -1.6784  0.3648  0.3599
 3437SOL    HW210131   0.514   5.158   1.998  1.0843  0.0937  0.2210
 3438SOL     OW10132   4.591   1.977   3.147 -0.2954 -0.3892  0.5647
 3438SOL    HW110133   4.503   1.929   3.141 -0.6374  0.1376  1.3060
 3438SOL    HW210134   4.661   1.923   3.100 -0.9978 -0.8381  0.0055
 3439SOL     OW10135   5.086   2.330   2.790 -0.2915 -0.5665  0.4680
 3439SOL    HW110136   5.083   2.231   2.805 -2.3268 -0.5758  0.2913
 3439SOL    HW210137   5.025   2.376   2.855 -0.9045  0.3749 -0.7220
 3440SOL     OW10138   3.518   3.766   4.313 -0.2892 -0.4428  0.2092
 3440SOL    HW110139   3.431   3.755   4.362 -1.3424 -1.6749 -1.8005
 3440SOL    HW210140   3.542   3.863   4.309 -2.5434  0.1509 -0.6972
 3441SOL     OW10141   0.825   1.592   3.649  0.7554  0.2788  0.4747
 3441SOL    HW110142   0.819   1.678   3.701  1.0050  1.8048 -1.8767
 3441SOL    HW210143   0.740   1.577   3.600  1.7323  0.7876 -1.4538
 3442SOL     OW10144   4.179   1.265   3.923 -0.3764 -0.1046  0.1536
 3442SOL    HW110145   4.086   1.231   3.939  0.7338 -4.0254 -0.7960
 3442SOL    HW210146   4.189   1.288   3.826 -0.3509  0.4390  0.2810
 3443SOL     OW10147   4.229   4.988   3.193 -0.3247 -0.1628 -0.1834
 3443SOL    HW110148   4.151   4.941   3.233 -0.6482  1.8338  1.6960
 3443SOL    HW210149   4.311   4.930   3.202 -1.1719 -1.3937 -0.2429
 3444SOL     OW10150   4.797   0.531   2.803 -0.1308 -0.0643 -0.4701
 3444SOL    HW110151   4.746   0.499   2.882  3.1827  0.6589  2.1687
 3444SOL    HW210152   4.830   0.453   2.750 -1.7558 -0.5669 -0.8083
 3445SOL     OW10153   2.919   2.711   3.346  0.1585 -0.4189  0.1611
 3445SOL    HW110154   2.845   2.691   3.410  0.1093 -0.8082 -0.0146
 3445SOL    HW210155   3.005   2.720   3.396 -0.1675  1.1037  0.4998
 3446SOL     OW10156   4.327   0.543   2.884 -0.1970  0.5590 -0.1140
 3446SOL    HW110157   4.259   0.494   2.940 -1.7310  1.6580 -0.9189
 3446SOL    HW210158   4.360   0.483   2.812  1.2218 -0.6252  1.4419
 3447SOL     OW10159   3.834   0.749   2.575 -0.2265  0.0588  0.5800
 3447SOL    HW110160   3.773   0.676   2.608 -0.7864 -1.6065 -3.5288
 3447SOL    HW210161   3.912   0.709   2.528  0.4573  2.1440 -0.1787
 3448SOL     OW10162   4.837   1.603   3.115  0.3333  0.0373  0.1505
 3448SOL    HW110163   4.797   1.564   3.198 -0.6011 -1.3691 -0.9154
 3448SOL    HW210164   4.850   1.531   3.047  0.8844  1.1923 -1.0136
 3449SOL     OW10165   4.488   1.417   3.778 -0.5681 -0.0031 -0.1084
 3449SOL    HW110166   4.555   1.410   3.852  0.4600 -1.9988 -1.1636
 3449SOL    HW210167   4.414   1.478   3.807 -0.5302 -1.1659  2.8178
 3450SOL     OW10168   3.303   1.126   3.764  0.3046 -0.2200  0.0476
 3450SOL    HW110169   3.358   1.183   3.702  0.2200  0.5744  0.6962
 3450SOL    HW210170   3.333   1.031   3.755  0.6028 -0.0577 -0.8813
 3451SOL     OW10171   3.645   4.795   4.342 -0.3477 -0.5785 -0.1310
 3451SOL    HW110172   3.685   4.844   4.419 -1.4468 -1.6247  1.1431
 3451SOL    HW210173   3.651   4.696   4.358  0.1801 -0.8483 -1.7981
 3452SOL     OW10174   4.745   1.175   2.779 -0.1446  0.3254 -0.1601
 3452SOL    HW110175   4.758   1.258   2.833  2.4378  0.7074 -1.2505
 3452SOL    HW210176   4.713   1.101   2.839 -0.5912  1.5754  1.1997
 3453SOL     OW10177   4.105   1.082   3.236 -0.3433 -0.0664 -0.2128
 3453SOL    HW110178   4.110   0.988   3.270 -0.7566 -0.2394 -0.6199
 3453SOL    HW210179   4.198   1.118   3.224 -0.1868 -0.2701  0.3528
 3454SOL     OW10180   0.063   1.857   2.935  0.1116 -0.1748  0.2907
 3454SOL    HW110181   0.054   1.921   2.859  0.0108  2.1551  2.1683
 3454SOL    HW210182   0.128   1.785   2.911  2.3807  2.1345 -0.9705
 3455SOL     OW10183   4.819   0.180   2.274 -0.1813 -0.0740 -0.0318
 3455SOL    HW110184   4.743   0.201   2.213  1.5146  1.1227 -1.8384
 3455SOL    HW210185   4.898   0.152   2.221  1.0533 -0.0399  1.7020
 3456SOL     OW10186   3.530   4.477   2.720  0.5679  0.0505  0.0586
 3456SOL    HW110187   3.495   4.560   2.678  1.2592 -0.0020 -0.6454
 3456SOL    HW210188   3.508   4.398   2.661  0.7669 -0.1341  0.2282
 3457SOL     OW10189   3.460   1.320   3.606  1.1996 -0.2529 -0.0818
 3457SOL    HW110190   3.478   1.326   3.508  0.5515 -2.8716 -0.4584
 3457SOL    HW210191   3.404   1.397   3.634  1.3192  0.5104 -1.7953
 3458SOL     OW10192   3.684   2.976   3.438 -0.5560  0.1725 -0.3275
 3458SOL    HW110193   3.597   2.928   3.436 -0.5697  0.1859 -0.1201
 3458SOL    HW210194   3.677   3.059   3.382 -0.1213 -0.7385 -1.7592
 3459SOL     OW10195   4.442   1.154   2.984 -0.6104 -0.0092  0.0737
 3459SOL    HW110196   4.513   1.086   2.965 -0.5547 -0.6444  2.2895
 3459SOL    HW210197   4.359   1.131   2.933 -0.2990 -1.2234  0.0871
 3460SOL     OW10198   0.338   1.292   2.686  0.3805  0.0839  0.7115
 3460SOL    HW110199   0.433   1.263   2.675  0.4218  0.4676 -0.0049
 3460SOL    HW210200   0.277   1.219   2.657  0.4656  0.0976  0.4946
 3461SOL     OW10201   3.397   0.555   3.538  0.4267  0.0359 -0.4632
 3461SOL    HW110202   3.469   0.588   3.476  0.6929  2.1517  0.8731
 3461SOL    HW210203   3.418   0.583   3.631 -0.3623 -2.4084  0.5248
 3462SOL     OW10204   0.195   2.677   3.267 -0.0914  0.1817 -0.0271
 3462SOL    HW110205   0.262   2.669   3.193  1.2704 -0.8166  1.2694
 3462SOL    HW210206   0.117   2.617   3.247 -0.3477  0.8567 -1.2157
 3463SOL     OW10207   3.676   1.210   3.146 -0.4889  0.0510 -0.5990
 3463SOL    HW110208   3.732   1.288   3.118  0.1642 -0.4440 -0.6859
 3463SOL    HW210209   3.732   1.146   3.200 -1.1670 -0.0726 -0.0219
 3464SOL     OW10210   4.373   0.832   2.446 -0.7233  0.0470 -0.1245
 3464SOL    HW110211   4.345   0.770   2.519  1.9086 -0.2723  0.7404
 3464SOL    HW210212   4.334   0.923   2.462 -2.5648 -0.7165 -0.0138
 3465SOL     OW10213   4.901   2.541   2.203  0.0610  0.6518  0.6416
 3465SOL    HW110214   4.881   2.634   2.173  0.3480  0.5570  0.1531
 3465SOL    HW210215   4.994   2.517   2.177  0.0368  0.2802  0.8972
 3466SOL     OW10216   4.786   1.395   2.920 -0.0859 -0.2912 -0.6075
 3466SOL    HW110217   4.868   1.369   2.971 -0.6971  0.1773  0.6662
 3466SOL    HW210218   4.811   1.458   2.847  0.9354 -1.6721 -1.4923
 3467SOL     OW10219   4.989   1.416   3.425 -0.1277  0.0389  0.2540
 3467SOL    HW110220   4.897   1.449   3.407 -0.0649  0.9438  1.4548
 3467SOL    HW210221   5.027   1.465   3.503  0.8512 -1.2805  0.6480
 3468SOL     OW10222   4.140   4.629   3.147 -0.3611  0.5534 -0.2183
 3468SOL    HW110223   4.233   4.601   3.124  0.3656  1.6174  1.2697
 3468SOL    HW210224   4.140   4.676   3.235 -2.4757 -0.3388  0.3229
 3469SOL     OW10225   0.290   4.206   2.830 -0.0495  0.1075 -0.3567
 3469SOL    HW110226   0.272   4.225   2.927  0.2876 -1.7079  0.0911
 3469SOL    HW210227   0.384   4.176   2.819  0.2863  1.4885 -1.4642
 3470SOL     OW10228   3.359   0.777   3.001 -0.1654 -0.2357  0.0564
 3470SOL    HW110229   3.260   0.765   3.012 -0.1890  0.3842  0.5188
 3470SOL    HW210230   3.400   0.799   3.089  0.4752 -1.0522 -0.0207
 3471SOL     OW10231   3.968   2.540   3.272  0.4929 -0.4613  0.0299
 3471SOL    HW110232   4.031   2.470   3.306  1.6792  0.9029  0.7290
 3471SOL    HW210233   3.900   2.561   3.342  1.9989  1.2380  1.0500
 3472SOL     OW10234   3.903   1.825   3.054  0.0536 -0.5760 -0.1071
 3472SOL    HW110235   3.924   1.883   2.976 -1.0470 -0.4459 -0.3286
 3472SOL    HW210236   3.853   1.744   3.023  1.3542 -1.5371  0.2291
 3473SOL     OW10237   4.770   1.831   3.007 -0.4642 -0.4772  0.3820
 3473SOL    HW110238   4.725   1.801   2.923 -2.8668 -3.8862  2.6231
 3473SOL    HW210239   4.831   1.759   3.040  2.4816  1.8203  0.4123
 3474SOL     OW10240   3.068   0.114   3.228  0.3832  0.2414  0.3266
 3474SOL    HW110241   3.089   0.081   3.136  1.0589 -0.6596  0.7882
 3474SOL    HW210242   3.055   0.213   3.226 -1.0438  0.0675 -0.9766
 3475SOL     OW10243   4.282   0.943   3.835  0.1884 -0.1527  0.0456
 3475SOL    HW110244   4.219   0.961   3.911 -3.2459 -0.2735 -2.5190
 3475SOL    HW210245   4.343   1.021   3.824 -0.3162  0.5646  1.8964
 3476SOL     OW10246   4.461   4.790   1.430 -0.5216  0.2245  0.1900
 3476SOL    HW110247   4.420   4.881   1.437  0.5776  0.7659 -0.1414
 3476SOL    HW210248   4.452   4.742   1.518  0.0211  1.1563  0.7728
 3477SOL     OW10249   3.650   0.596   3.428  0.1166  0.3847 -0.0487
 3477SOL    HW110250   3.686   0.503   3.427 -0.9399 -0.0394 -0.2764
 3477SOL    HW210251   3.725   0.661   3.439  0.8601 -0.4933  0.1676
 3478SOL     OW10252   4.306   4.918   3.527 -0.3093  0.2886 -0.0417
 3478SOL    HW110253   4.328   5.012   3.503  1.5538 -0.0525  0.2279
 3478SOL    HW210254   4.261   4.915   3.616  0.4303  0.8598  0.3580
 3479SOL     OW10255   4.933   2.169   3.205  0.0998 -0.7346  0.2895
 3479SOL    HW110256   4.928   2.099   3.133 -0.6176 -0.9136  0.5079
 3479SOL    HW210257   4.952   2.125   3.293 -1.2018 -0.7662  0.5765
 3480SOL     OW10258   0.403   1.567   2.616  0.3847  0.8183  0.0123
 3480SOL    HW110259   0.368   1.603   2.530  1.4960  1.0157 -0.3709
 3480SOL    HW210260   0.375   1.471   2.626 -1.1645  1.2665  0.2478
 3481SOL     OW10261   3.676   1.613   3.529  0.1602 -0.1839  1.0989
 3481SOL    HW110262   3.689   1.625   3.627  1.2940 -1.7031  1.1635
 3481SOL    HW210263   3.756   1.567   3.490  0.1762  1.2464 -0.7211
 3482SOL     OW10264   4.673   2.460   4.444 -0.2324  0.5153 -0.4071
 3482SOL    HW110265   4.674   2.435   4.347 -0.3728 -0.1491 -0.2463
 3482SOL    HW210266   4.665   2.559   4.454  0.7714  0.6778 -1.0827
 3483SOL     OW10267   0.228   0.619   2.110 -0.5263  0.0194  0.5188
 3483SOL    HW110268   0.322   0.603   2.140 -0.7738 -1.4466  0.5770
 3483SOL    HW210269   0.228   0.644   2.013  0.0160  1.5353  0.8745
 3484SOL     OW10270   4.674   1.982   3.427  0.0777  0.0555 -0.3881
 3484SOL    HW110271   4.757   2.036   3.436  0.2820 -0.1923 -0.7730
 3484SOL    HW210272   4.645   1.982   3.331 -0.5121  0.3584 -0.2160
 3485SOL     OW10273   0.853   2.104   2.654 -0.1044  0.3458  0.4833
 3485SOL    HW110274   0.912   2.174   2.693  0.1670  1.1213 -1.2241
 3485SOL    HW210275   0.764   2.144   2.632  0.8172  0.9019 -2.7271
 3486SOL     OW10276   0.816   1.395   3.020 -0.0617 -0.3231  0.3035
 3486SOL    HW110277   0.914   1.393   3.043  0.2753 -1.1426 -1.0889
 3486SOL    HW210278   0.789   1.489   2.999  0.4502 -0.1037  0.6031
 3487SOL     OW10279   3.017   2.065   4.623  0.0041  0.7360 -0.0654
 3487SOL    HW110280   3.102   2.110   4.596  0.3941  0.2543  0.3376
 3487SOL    HW210281   2.989   2.097   4.713 -0.1766  0.8046 -0.1456
 3488SOL     OW10282   0.496   1.126   2.450 -0.1229 -0.1794  0.4480
 3488SOL    HW110283   0.547   1.066   2.511 -1.5847  0.3674  2.3411
 3488SOL    HW210284   0.401   1.096   2.446 -0.3489  0.6177 -0.4910
 3489SOL     OW10285   4.176   1.682   4.117 -0.4182  0.3017 -0.8151
 3489SOL    HW110286   4.268   1.655   4.146 -0.8693 -3.2221 -2.1858
 3489SOL    HW210287   4.180   1.773   4.077  1.9487  1.2871  1.3441
 3490SOL     OW10288   4.727   2.383   2.342 -0.1432 -0.3009  0.2822
 3490SOL    HW110289   4.672   2.456   2.381  0.3472  0.8571 -1.1352
 3490SOL    HW210290   4.796   2.421   2.281  0.4777 -1.9112 -0.0848
 3491SOL     OW10291   4.361   0.382   2.614  0.1674  0.7425 -0.0044
 3491SOL    HW110292   4.274   0.358   2.572 -0.6459  2.0589  0.8611
 3491SOL    HW210293   4.436   0.361   2.550 -0.6004 -1.8748 -0.1697
 3492SOL     OW10294   4.581   2.011   1.883 -0.5464  0.7273  0.3769
 3492SOL    HW110295   4.592   2.077   1.809  3.4012 -1.8298 -1.6606
 3492SOL    HW210296   4.640   2.036   1.960  0.1421  0.1721  0.0386
 3493SOL     OW10297   4.756   2.140   4.730 -0.1701 -0.3194 -0.2066
 3493SOL    HW110298   4.829   2.081   4.764 -0.7025 -1.1107 -0.3894
 3493SOL    HW210299   4.689   2.156   4.803  1.1215  1.9982  0.5591
 3494SOL     OW10300   3.977   2.367   3.738  0.1262 -0.1086  0.2397
 3494SOL    HW110301   3.974   2.283   3.682 -1.6936 -0.5347  0.8902
 3494SOL    HW210302   4.070   2.383   3.768  0.8820 -0.7584 -1.5856
 3495SOL     OW10303   4.806   0.954   3.379 -0.7481  0.7464 -0.3323
 3495SOL    HW110304   4.779   0.883   3.444 -0.3338 -0.3097 -1.2744
 3495SOL    HW210305   4.843   0.911   3.296 -0.0231  2.0809 -0.7282
 3496SOL     OW10306   0.024   1.550   3.617 -0.6983  0.0257  0.1078
 3496SOL    HW110307  -0.015   1.508   3.699 -0.0782 -2.5593 -0.8427
 3496SOL    HW210308   0.118   1.579   3.637 -1.3366  1.6667  0.9481
 3497SOL     OW10309   3.559   4.360   4.100  0.0401  0.2894 -0.5126
 3497SOL    HW110310   3.629   4.334   4.033  0.1050 -1.5834  0.2097
 3497SOL    HW210311   3.487   4.290   4.100  1.1977 -1.1256  2.9943
 3498SOL     OW10312   4.689   1.782   3.647 -0.3113 -0.1139 -0.0079
 3498SOL    HW110313   4.690   1.847   3.723 -0.9713  0.5950 -0.5851
 3498SOL    HW210314   4.692   1.832   3.560  0.3181 -0.9055 -0.4637
 3499SOL     OW10315   5.003   2.268   2.109 -0.4272 -0.3632 -0.5680
 3499SOL    HW110316   5.091   2.221   2.104 -0.3776 -0.2758 -0.5276
 3499SOL    HW210317   4.954   2.237   2.191 -1.4611 -2.1670 -1.8055
 3500SOL     OW10318   2.605   1.143   3.751  0.1556 -0.3845 -0.3536
 3500SOL    HW110319   2.567   1.090   3.675 -1.0949  0.3086 -0.2310
 3500SOL    HW210320   2.685   1.194   3.719 -0.6878  0.3353 -1.3682
 3501SOL     OW10321   5.059   0.108   3.718 -0.5034 -0.0986  0.1206
 3501SOL    HW110322   5.108   0.188   3.751 -0.6830 -0.0633  0.3022
 3501SOL    HW210323   5.054   0.040   3.790 -0.0549 -0.4134 -0.1415
 3502SOL     OW10324   3.455   4.884   2.295  1.0312 -0.2844  0.2646
 3502SOL    HW110325   3.438   4.801   2.242  2.1175 -0.4371  0.1392
 3502SOL    HW210326   3.367   4.924   2.323  0.4528 -0.4687 -1.2041
 3503SOL     OW10327   0.825   0.904   3.411  0.1936  0.5707 -0.2021
 3503SOL    HW110328   0.760   0.902   3.335  0.7653  0.1668 -0.6965
 3503SOL    HW210329   0.785   0.861   3.491 -0.2703  0.6295 -0.4006
 3504SOL     OW10330   3.738   3.887   3.127 -0.3135 -0.3536  0.7070
 3504SOL    HW110331   3.765   3.942   3.206 -0.0229  0.5920 -0.0393
 3504SOL    HW210332   3.656   3.835   3.150  0.0733 -0.5126  1.8086
 3505SOL     OW10333   4.567   0.632   3.760 -0.1696  0.3695  0.2164
 3505SOL    HW110334   4.593   0.722   3.797 -0.1278 -0.1512  1.5059
 3505SOL    HW210335   4.470   0.616   3.777 -0.5049  0.7321 -1.2474
 3506SOL     OW10336   3.851   1.069   3.691  0.4340 -0.1609 -0.6771
 3506SOL    HW110337   3.950   1.068   3.704  0.8022  0.3715 -2.9874
 3506SOL    HW210338   3.829   1.032   3.601 -1.3453  1.2324 -0.8674
 3507SOL     OW10339   4.380   1.870   3.827 -0.3220  0.1756 -0.2072
 3507SOL    HW110340   4.418   1.907   3.742 -0.4817 -1.2343 -0.9236
 3507SOL    HW210341   4.359   1.773   3.814  0.8082 -0.4020  1.8283
 3508SOL     OW10342   0.714   1.303   2.424 -0.2777  0.9103 -0.3285
 3508SOL    HW110343   0.631   1.248   2.431  0.4852 -0.5163 -1.8481
 3508SOL    HW210344   0.732   1.347   2.512 -1.3605 -0.6043  0.7056
 3509SOL     OW10345   5.025   0.974   2.457  0.1023  0.3881  0.1458
 3509SOL    HW110346   5.020   1.031   2.375 -0.3051  0.4597  0.2173
 3509SOL    HW210347   5.017   0.877   2.431  0.7443  0.3606  0.0296
 3510SOL     OW10348   4.748   1.875   2.337 -0.5267  0.3662 -0.7559
 3510SOL    HW110349   4.652   1.905   2.338 -0.2016  1.4824 -1.0129
 3510SOL    HW210350   4.775   1.857   2.242 -1.3167 -2.9402 -0.4895
 3511SOL     OW10351   4.218   2.248   3.895  0.2126  0.3451  0.4998
 3511SOL    HW110352   4.267   2.255   3.982  0.0474 -1.1993  0.7544
 3511SOL    HW210353   4.129   2.206   3.911 -0.5255  1.6078 -0.1953
 3512SOL     OW10354   4.202   1.928   3.562 -0.7103 -0.1840 -0.1774
 3512SOL    HW110355   4.295   1.963   3.572 -0.7446 -0.5038  1.7194
 3512SOL    HW210356   4.204   1.841   3.514  0.0826 -0.5944  0.5662
 3513SOL     OW10357   4.295   0.908   0.511 -0.1565  0.3923 -0.0875
 3513SOL    HW110358   4.211   0.857   0.493  0.2564 -0.2094 -0.3461
 3513SOL    HW210359   4.273   1.001   0.542 -0.9140  0.6441 -1.3087
 3514SOL     OW10360   3.479   1.390   4.425 -0.4081 -0.2286  0.0460
 3514SOL    HW110361   3.451   1.433   4.510  1.1705  1.6730 -0.3308
 3514SOL    HW210362   3.492   1.292   4.440 -0.2986  0.0476  1.9718
 3515SOL     OW10363   4.177   2.074   2.565  0.1860 -0.2516  0.1589
 3515SOL    HW110364   4.214   1.981   2.557  1.0096  0.0530  0.2573
 3515SOL    HW210365   4.199   2.110   2.655  0.7518  0.3962 -0.2272
 3516SOL     OW10366   4.096   1.587   3.650 -0.3088 -0.1476 -0.2990
 3516SOL    HW110367   4.008   1.575   3.604 -0.4206  0.9252 -0.3875
 3516SOL    HW210368   4.163   1.620   3.584  0.5921 -2.3808 -0.5973
 3517SOL     OW10369   4.483   1.260   2.174 -0.4962 -0.2077  0.8872
 3517SOL    HW110370   4.433   1.174   2.186 -0.1504 -0.2541  2.2232
 3517SOL    HW210371   4.442   1.313   2.101 -2.1412 -0.4939  1.5590
 3518SOL     OW10372   4.460   0.351   3.522  0.0426  0.2660 -0.3866
 3518SOL    HW110373   4.395   0.408   3.472  1.6828  1.4801 -1.2599
 3518SOL    HW210374   4.450   0.256   3.494 -0.3198  0.6615 -1.6686
 3519SOL     OW10375   3.928   2.576   3.020  0.0075  0.6193  0.0694
 3519SOL    HW110376   3.941   2.564   3.118 -0.6844 -0.3245  0.0586
 3519SOL    HW210377   4.014   2.554   2.972  0.1009  0.2512  0.4003
 3520SOL     OW10378   0.881   0.074   3.623 -0.1179  0.0439  0.1184
 3520SOL    HW110379   0.914   0.166   3.641 -2.3168  0.8235  0.5334
 3520SOL    HW210380   0.783   0.069   3.645  0.1242 -2.6344  0.9349
 3521SOL     OW10381   4.351   2.443   3.424 -0.1661  0.2268 -0.3446
 3521SOL    HW110382   4.411   2.469   3.348  0.3848  0.8242  0.2837
 3521SOL    HW210383   4.339   2.521   3.485 -1.2673 -0.0119 -0.2413
 3522SOL     OW10384   3.777   2.898   3.870 -0.3082 -0.6581 -0.1813
 3522SOL    HW110385   3.792   2.997   3.875  1.0149 -0.7827 -1.1861
 3522SOL    HW210386   3.855   2.851   3.912 -0.2664 -1.2958 -0.9636
 3523SOL     OW10387   5.026   1.341   3.041 -0.8287 -0.6553 -0.1729
 3523SOL    HW110388   5.109   1.361   2.988 -0.0343 -1.6096  0.6766
 3523SOL    HW210389   5.051   1.322   3.136 -2.1713  0.3524  0.4195
 3524SOL     OW10390   4.958   1.813   1.200  0.6936  0.2446 -0.0205
 3524SOL    HW110391   5.047   1.856   1.185  0.8015  0.0079 -0.0575
 3524SOL    HW210392   4.888   1.864   1.150  0.8314  0.3368 -0.1208
 3525SOL     OW10393   3.133   0.633   4.443  0.1483  0.1040  0.2071
 3525SOL    HW110394   3.218   0.676   4.474 -0.4210  0.1225  1.8037
 3525SOL    HW210395   3.055   0.677   4.488 -0.5996 -1.0431  0.0709
 3526SOL     OW10396   3.673   1.254   3.795  0.8375  0.2562 -0.5265
 3526SOL    HW110397   3.597   1.226   3.735  1.9859 -2.5441 -0.8228
 3526SOL    HW210398   3.758   1.215   3.760  1.9502  0.8277  1.4552
 3527SOL     OW10399   2.687   0.301   3.098 -0.5898  0.1398  0.3864
 3527SOL    HW110400   2.595   0.340   3.092 -0.0623  1.3936  0.2111
 3527SOL    HW210401   2.743   0.357   3.159  0.5387  0.3779 -0.8208
 3528SOL     OW10402   4.252   1.905   0.003 -0.0547  0.3170 -0.4208
 3528SOL    HW110403   4.161   1.945  -0.001  0.0384  0.7382  0.9332
 3528SOL    HW210404   4.259   1.848   0.085  0.5388 -0.6597 -1.1310
 3529SOL     OW10405   5.047   0.786   4.204  0.9009 -0.5681  0.1786
 3529SOL    HW110406   4.999   0.769   4.117  1.5696 -0.0927 -0.2951
 3529SOL    HW210407   4.995   0.853   4.257 -0.4356 -2.1521  0.9514
 3530SOL     OW10408   3.732   0.311   5.066  0.2610  0.8260 -0.4707
 3530SOL    HW110409   3.754   0.224   5.021 -1.7166 -0.7975  1.5201
 3530SOL    HW210410   3.781   0.316   5.153 -1.2779  0.6604  0.4327
 3531SOL     OW10411   4.945   1.075   0.728 -0.4407 -0.2648 -0.4146
 3531SOL    HW110412   4.929   0.999   0.790  2.0954 -1.7394 -1.4539
 3531SOL    HW210413   4.942   1.042   0.633  2.8693  0.3416 -0.8446
 3532SOL     OW10414   4.324   1.267   4.422  0.1505 -0.1057  0.6027
 3532SOL    HW110415   4.225   1.275   4.432 -0.2488 -2.9881 -0.0647
 3532SOL    HW210416   4.352   1.293   4.330 -0.4043 -1.7039 -0.0507
 3533SOL     OW10417   4.572   1.780   0.095 -0.0359  0.1776  0.3272
 3533SOL    HW110418   4.626   1.700   0.121 -1.6075 -0.9304  0.2979
 3533SOL    HW210419   4.633   1.849   0.055  1.2861 -1.2333 -0.2070
 3534SOL     OW10420   3.554   1.438   5.070  0.3919  0.6321  0.6937
 3534SOL    HW110421   3.518   1.508   5.008  1.1400  0.8167  0.4558
 3534SOL    HW210422   3.612   1.376   5.018 -0.6298 -0.4567  0.8054
 3535SOL     OW10423   3.744   1.806   4.179  0.1923 -0.4662 -0.2484
 3535SOL    HW110424   3.773   1.865   4.255  1.2021 -0.1107 -0.8837
 3535SOL    HW210425   3.651   1.775   4.194  0.4388 -0.5450  1.2323
 3536SOL     OW10426   4.768   2.328   0.213  0.1784 -1.0559 -0.3170
 3536SOL    HW110427   4.720   2.241   0.203 -1.8098 -0.4384  2.6428
 3536SOL    HW210428   4.822   2.328   0.297  2.4757 -0.3355 -1.6782
 3537SOL     OW10429   4.403   1.578   4.192 -0.4184 -0.3503 -0.1488
 3537SOL    HW110430   4.498   1.598   4.167  0.1586 -2.6897 -0.0564
 3537SOL    HW210431   4.381   1.485   4.164 -2.3904 -0.1899  0.7566
 3538SOL     OW10432   3.873   0.697   3.550 -0.0369 -0.3373 -0.2508
 3538SOL    HW110433   3.960   0.672   3.593 -0.6570  0.2358  1.3793
 3538SOL    HW210434   3.880   0.790   3.513 -0.5999  0.5914  1.8366
 3539SOL     OW10435   3.814   1.843   4.439 -0.3306  0.2425  0.4116
 3539SOL    HW110436   3.821   1.942   4.446  0.4787  0.5363 -2.7793
 3539SOL    HW210437   3.724   1.813   4.471 -0.4886  1.9396  1.6520
 3540SOL     OW10438   1.251   1.236   4.518  0.3322  0.5959 -0.0513
 3540SOL    HW110439   1.249   1.237   4.618 -0.9308 -0.5660 -0.0308
 3540SOL    HW210440   1.271   1.327   4.484 -0.1372  1.2042  1.2519
 3541SOL     OW10441   0.099   1.749   4.270  0.2219  0.3039 -0.3203
 3541SOL    HW110442   0.024   1.782   4.214  0.6946  3.3080  0.6346
 3541SOL    HW210443   0.066   1.730   4.363  0.2658 -0.3793 -0.4412
 3542SOL     OW10444   4.072   2.312   4.258 -0.2183 -0.2286  0.6286
 3542SOL    HW110445   4.104   2.219   4.240  1.4407  0.3103  0.5598
 3542SOL    HW210446   4.135   2.357   4.322 -1.7823  0.3979  1.7995
 3543SOL     OW10447   0.395   0.649   4.590  0.5001 -0.1820  0.0318
 3543SOL    HW110448   0.347   0.572   4.548  0.2705 -0.0612  0.0719
 3543SOL    HW210449   0.475   0.615   4.639  1.4842 -0.1937 -1.5314
 3544SOL     OW10450   4.608   0.820   0.228 -0.1762 -0.2959  0.0538
 3544SOL    HW110451   4.662   0.837   0.145  0.9984 -0.6553  0.7250
 3544SOL    HW210452   4.573   0.906   0.263  1.7774  0.2518  0.7896
 3545SOL     OW10453   4.017   0.615   0.302 -0.5408  0.3425 -0.1311
 3545SOL    HW110454   3.922   0.607   0.271  0.7334 -1.8706 -4.0918
 3545SOL    HW210455   4.054   0.524   0.321  0.6050  1.2302  2.3601
 3546SOL     OW10456   4.718   0.342   0.212  0.0696  0.1382  0.2337
 3546SOL    HW110457   4.648   0.311   0.276  2.1371 -2.5705  1.3735
 3546SOL    HW210458   4.773   0.264   0.183  2.0791  2.0183 -1.3113
 3547SOL     OW10459   4.887   1.000   4.327 -0.2958  0.5161  0.0672
 3547SOL    HW110460   4.970   1.055   4.339 -0.3992  0.6913 -0.0109
 3547SOL    HW210461   4.853   1.011   4.234 -0.7773  0.9764  0.2871
 3548SOL     OW10462   3.701   0.696   4.361  0.0777 -0.3733 -0.2583
 3548SOL    HW110463   3.787   0.673   4.315  1.5251 -0.4067  2.2987
 3548SOL    HW210464   3.694   0.796   4.368  0.5154 -0.3909  0.5529
 3549SOL     OW10465   4.958   0.417   3.757  0.1782 -0.5371  0.0326
 3549SOL    HW110466   4.994   0.434   3.665  1.0246  0.1231  0.4817
 3549SOL    HW210467   4.859   0.405   3.751  0.0590  0.6438 -0.8266
 3550SOL     OW10468   0.912   2.623   4.783  0.7498  0.1491  0.1890
 3550SOL    HW110469   0.922   2.669   4.695  0.8517  0.2958  0.2762
 3550SOL    HW210470   0.852   2.544   4.773 -0.3211  0.9413  0.2678
 3551SOL     OW10471   4.323   1.007   4.689  0.1982  0.4038  0.3845
 3551SOL    HW110472   4.348   1.103   4.696  1.8349 -0.0004  0.5163
 3551SOL    HW210473   4.395   0.951   4.729  0.1268 -0.9697 -1.3016
 3552SOL     OW10474   3.940   1.174   4.015  0.4983 -0.3812 -0.3681
 3552SOL    HW110475   3.966   1.238   4.087  2.0639 -1.2114 -0.1545
 3552SOL    HW210476   3.855   1.128   4.040  0.5117  0.0414  0.4884
 3553SOL     OW10477   3.912   1.463   3.456  0.0204  0.8438  0.4586
 3553SOL    HW110478   3.936   1.366   3.458 -0.8722  0.5956 -0.2977
 3553SOL    HW210479   3.952   1.506   3.375  2.0547  1.5911  1.7579
 3554SOL     OW10480   3.675   0.902   3.856 -0.7145 -0.0033  0.7159
 3554SOL    HW110481   3.677   0.928   3.953 -0.5538 -0.6687  0.8935
 3554SOL    HW210482   3.736   0.962   3.804  1.2884 -1.3031  1.4494
 3555SOL     OW10483   4.378   2.227   4.125 -0.3693  0.6224  0.2061
 3555SOL    HW110484   4.441   2.158   4.088 -0.7427  0.0395  0.6432
 3555SOL    HW210485   4.300   2.182   4.167 -0.8197  1.3334  0.1429
 3556SOL     OW10486   4.753   1.384   5.071  0.2208  0.4132  0.6045
 3556SOL    HW110487   4.747   1.366   5.169 -0.5325  1.5740  0.7908
 3556SOL    HW210488   4.681   1.336   5.022  0.1056  0.4686  0.7219
 3557SOL     OW10489   4.344   1.306   4.143 -0.2475 -0.3072  0.3341
 3557SOL    HW110490   4.434   1.273   4.114 -0.6600 -2.3813  1.2766
 3557SOL    HW210491   4.280   1.300   4.067  0.1132  0.1064 -0.0137
 3558SOL     OW10492   4.625   0.536   3.408  0.2038 -0.1434  0.2047
 3558SOL    HW110493   4.604   0.550   3.311  1.0674  1.9507  0.2667
 3558SOL    HW210494   4.588   0.448   3.438 -0.5880 -0.5682 -1.8648
 3559SOL     OW10495   4.218   0.836   4.522 -0.0047  0.7709 -0.0070
 3559SOL    HW110496   4.222   0.845   4.423 -0.5402  0.0913 -0.1003
 3559SOL    HW210497   4.246   0.922   4.565 -1.9231  1.8267 -0.7656
 3560SOL     OW10498   3.636   0.813   4.995  0.8765 -0.1685 -0.0733
 3560SOL    HW110499   3.589   0.726   4.978  1.1308 -0.2631 -0.2880
 3560SOL    HW210500   3.728   0.810   4.955  0.4013  0.6990 -1.2882
 3561SOL     OW10501   4.590   0.187   2.980  0.0295 -0.1862  0.0189
 3561SOL    HW110502   4.614   0.284   2.980 -2.7621  0.6126  1.1400
 3561SOL    HW210503   4.566   0.158   2.888 -2.5224  1.2524  0.1304
 3562SOL     OW10504   3.596   0.193   4.203  0.6952  0.2522 -0.2496
 3562SOL    HW110505   3.501   0.223   4.194  0.6414  0.0209 -0.4637
 3562SOL    HW210506   3.599   0.110   4.259  0.8526  0.7100  0.4178
 3563SOL     OW10507   4.332   0.445   3.255  0.4252 -0.2218  0.1066
 3563SOL    HW110508   4.259   0.505   3.287 -0.1572 -2.2969  3.0899
 3563SOL    HW210509   4.295   0.381   3.188 -0.4127 -0.8968  1.1793
 3564SOL     OW10510   0.608   1.539   4.313  0.6330  0.2993 -0.2367
 3564SOL    HW110511   0.531   1.600   4.290  0.3820 -0.0356 -0.2964
 3564SOL    HW210512   0.580   1.477   4.386  0.0023 -1.4501 -1.8634
 3565SOL     OW10513   4.455   1.816   4.913  0.2147 -0.1859 -0.2136
 3565SOL    HW110514   4.383   1.848   4.974 -0.2942  0.0644 -0.9324
 3565SOL    HW210515   4.434   1.724   4.880  0.9469 -0.6975  0.6948
 3566SOL     OW10516   5.067   2.329   4.462  0.7276 -0.3192  0.5413
 3566SOL    HW110517   5.032   2.419   4.437 -1.8248 -1.2567  0.4316
 3566SOL    HW210518   5.105   2.332   4.554  0.6161  0.8374  0.5626
 3567SOL     OW10519   0.680   4.852   3.325  0.2972  0.3522  0.1657
 3567SOL    HW110520   0.618   4.815   3.394 -1.3281  1.6195 -0.5147
 3567SOL    HW210521   0.721   4.937   3.359  1.5006 -0.3616  0.5224
 3568SOL     OW10522   3.390   4.822   4.082 -0.1702 -0.0072 -0.3812
 3568SOL    HW110523   3.464   4.870   4.035 -1.8878  1.6640 -1.5240
 3568SOL    HW210524   3.305   4.873   4.072 -1.1131 -0.7460  2.7011
 3569SOL     OW10525   0.396   5.026   3.493 -0.0253 -0.0219  0.2063
 3569SOL    HW110526   0.340   5.061   3.417 -0.3339  1.3605  1.0370
 3569SOL    HW210527   0.351   4.947   3.534  0.5180 -1.2868 -1.5021
 3570SOL     OW10528   3.894   4.578   4.569  0.1508  0.5326  0.1631
 3570SOL    HW110529   3.853   4.667   4.552  1.8636  0.9724 -2.0817
 3570SOL    HW210530   3.990   4.579   4.541  0.2564 -1.9826  0.1705
 3571SOL     OW10531   4.083   1.414   4.505  0.2924  0.5698  0.0858
 3571SOL    HW110532   4.011   1.476   4.474  0.5933  1.7104  1.5528
 3571SOL    HW210533   4.171   1.461   4.503  0.3527  0.7023  2.4133
 3572SOL     OW10534   0.617   0.841   4.897 -0.2137  0.1532 -0.2728
 3572SOL    HW110535   0.574   0.884   4.976  0.3834  0.9837 -0.3878
 3572SOL    HW210536   0.685   0.903   4.858 -1.1768  0.2005 -2.0312
 3573SOL     OW10537   3.061   5.082   4.526 -0.7264 -0.1128  0.1963
 3573SOL    HW110538   3.090   4.987   4.522 -1.4167 -0.3567  0.6399
 3573SOL    HW210539   3.106   5.135   4.454 -0.7853 -0.8982 -0.4312
 3574SOL     OW10540   4.266   0.882   4.237  0.3863 -0.0088  0.1237
 3574SOL    HW110541   4.341   0.934   4.278 -1.4507  1.7105  1.4909
 3574SOL    HW210542   4.228   0.933   4.160 -1.5364  0.9004  1.5741
 3575SOL     OW10543   2.964   0.397   3.601  0.4543  0.2165  0.5451
 3575SOL    HW110544   2.979   0.311   3.554 -0.5196  0.2443  0.1639
 3575SOL    HW210545   2.866   0.416   3.607  0.6006  0.7305  1.6531
 3576SOL     OW10546   4.461   0.670   4.834 -0.1815  0.2302  0.0130
 3576SOL    HW110547   4.445   0.694   4.929 -0.4399 -0.3314  0.1135
 3576SOL    HW210548   4.536   0.725   4.798 -0.7073  1.1257  0.2573
 3577SOL     OW10549   1.305   0.741   4.317  0.3004  0.4259  0.5591
 3577SOL    HW110550   1.358   0.740   4.232 -1.8883  0.5813 -0.8672
 3577SOL    HW210551   1.337   0.816   4.375  0.6653  1.4533 -0.9139
 3578SOL     OW10552   4.038   2.637   4.344  0.2488  0.4513  0.0166
 3578SOL    HW110553   4.081   2.571   4.406  0.8525  0.5537 -0.2818
 3578SOL    HW210554   3.961   2.680   4.390 -1.2644 -1.7013 -0.3708
 3579SOL     OW10555   3.383   0.331   3.392 -0.4094  0.7424  0.0177
 3579SOL    HW110556   3.304   0.274   3.412  0.3322 -0.3224 -0.0082
 3579SOL    HW210557   3.394   0.401   3.463  0.1193 -0.7312  1.4361
 3580SOL     OW10558   0.230   0.909   0.431  0.4940 -0.3317 -0.4067
 3580SOL    HW110559   0.315   0.880   0.477  0.2248  0.1100  0.3757
 3580SOL    HW210560   0.231   1.008   0.418  0.7648 -0.4953 -1.7783
 3581SOL     OW10561   0.296   0.892   4.517  0.0972  0.0813 -0.0477
 3581SOL    HW110562   0.359   0.825   4.557 -0.0523  1.3026  2.4297
 3581SOL    HW210563   0.204   0.877   4.554 -0.2624  0.7072 -0.6673
 3582SOL     OW10564   4.021   0.638   5.029  0.0417 -0.2837 -0.2055
 3582SOL    HW110565   4.064   0.566   4.974 -0.1958  0.0786 -0.8842
 3582SOL    HW210566   4.089   0.679   5.090  0.3088 -0.6988 -0.2209
 3583SOL     OW10567   4.120   0.978   4.041  0.1520  0.0418  0.1434
 3583SOL    HW110568   4.074   0.890   4.036  0.1087  0.0507  0.3543
 3583SOL    HW210569   4.057   1.051   4.013  0.3333 -0.0387 -0.4895
 3584SOL     OW10570   0.355   0.328   3.998  0.1830  0.0557  0.2515
 3584SOL    HW110571   0.419   0.274   3.945 -0.2244  2.3369 -2.8533
 3584SOL    HW210572   0.264   0.324   3.956 -0.3742  1.2974  1.2594
 3585SOL     OW10573   2.546   5.045   0.025 -0.0093  0.7320  0.9084
 3585SOL    HW110574   2.598   5.082  -0.052 -1.5453  1.1107  0.0051
 3585SOL    HW210575   2.563   5.101   0.106  0.3381  1.3487  0.4196
 3586SOL     OW10576   3.347   1.259   0.213  0.6604  0.2509  0.3035
 3586SOL    HW110577   3.332   1.354   0.242 -2.2189 -0.4300  1.4647
 3586SOL    HW210578   3.302   1.243   0.125 -2.5541 -0.8622  1.9551
 3587SOL     OW10579   3.553   0.503   4.455 -0.3563 -0.1303 -0.5781
 3587SOL    HW110580   3.610   0.438   4.506  0.4933 -0.0590 -1.4136
 3587SOL    HW210581   3.612   0.566   4.404 -1.1847  0.5901 -0.6582
 3588SOL     OW10582   4.197   5.036   3.747  0.2984 -0.2777 -0.4395
 3588SOL    HW110583   4.199   4.995   3.838 -0.6394  1.7108  0.5421
 3588SOL    HW210584   4.108   5.021   3.705  0.7225 -1.1740 -1.0438
 3589SOL     OW10585   4.718   0.432   3.038  0.6739 -0.6096 -0.6662
 3589SOL    HW110586   4.781   0.411   3.113  0.9060 -0.2655 -0.7650
 3589SOL    HW210587   4.658   0.507   3.064  0.9796 -0.2622 -0.9464
 3590SOL     OW10588   4.158   1.779   4.850  0.9164  0.2510  0.2081
 3590SOL    HW110589   4.210   1.696   4.869  1.1000  0.6219  1.3984
 3590SOL    HW210590   4.176   1.847   4.921  0.2819  1.0825 -0.4081
 3591SOL     OW10591   0.227   0.411   4.220 -0.3654 -0.6015  0.4432
 3591SOL    HW110592   0.300   0.398   4.287  0.2390 -0.1049 -0.0973
 3591SOL    HW210593   0.263   0.393   4.128  0.1627  3.0330 -0.2398
 3592SOL     OW10594   4.001   3.270   3.998  0.7031 -0.3856  0.3515
 3592SOL    HW110595   3.925   3.211   3.971  0.8240 -0.1521 -0.5200
 3592SOL    HW210596   3.967   3.349   4.049  0.4959 -0.9536  1.1168
 3593SOL     OW10597   4.012   0.236   0.075  0.0231 -0.6533 -0.3268
 3593SOL    HW110598   3.945   0.256   0.146  1.3612  2.2345  0.2916
 3593SOL    HW210599   4.080   0.172   0.110 -0.2537 -0.5606  0.3897
 3594SOL     OW10600   4.891   1.168   3.681 -0.6793 -0.2487 -0.1100
 3594SOL    HW110601   4.825   1.148   3.609  0.2905  0.1614 -1.1369
 3594SOL    HW210602   4.926   1.082   3.718 -2.1982 -0.4843  0.8689
 3595SOL     OW10603   1.086   1.573   5.004  0.2694  0.9228 -0.2076
 3595SOL    HW110604   1.037   1.509   4.943 -1.2356  0.8365  1.0241
 3595SOL    HW210605   1.074   1.666   4.970 -2.1479  1.0872  0.8394
 3596SOL     OW10606   3.234   1.781   4.286 -0.5874  0.1830 -0.7117
 3596SOL    HW110607   3.153   1.789   4.344  0.3730  1.5971  0.5228
 3596SOL    HW210608   3.226   1.842   4.208 -0.8112  0.1525 -0.7126
 3597SOL     OW10609   3.356   2.086   0.584 -0.8774  0.6881  0.1032
 3597SOL    HW110610   3.398   2.015   0.527 -0.0456  0.9691  0.3547
 3597SOL    HW210611   3.299   2.145   0.526 -2.0355 -0.5115 -0.0104
 3598SOL     OW10612   4.268   1.533   4.930 -0.2612  0.1572  0.3240
 3598SOL    HW110613   4.228   1.555   5.020 -0.4062 -0.1260  0.3284
 3598SOL    HW210614   4.206   1.474   4.879 -0.9411  1.6459 -0.6300
 3599SOL     OW10615   3.762   1.089   0.561  0.2011  0.1651  0.2476
 3599SOL    HW110616   3.797   1.008   0.514 -2.5784 -0.1844 -1.4046
 3599SOL    HW210617   3.714   1.061   0.644  0.1745  0.2421  0.2581
 3600SOL     OW10618   2.365   1.440   0.462 -0.2090  0.1642 -0.3262
 3600SOL    HW110619   2.354   1.354   0.410 -0.2472 -0.5677  0.8567
 3600SOL    HW210620   2.462   1.463   0.468 -0.0369 -0.7222  0.7551
 3601SOL     OW10621   2.777   0.100   1.046 -0.3490  0.0545  0.2967
 3601SOL    HW110622   2.825   0.031   0.993 -0.2802  0.9837 -0.9020
 3601SOL    HW210623   2.746   0.174   0.985  0.3375  1.5170  1.6351
 3602SOL     OW10624   2.780   0.914   0.636  0.1025  0.1460 -0.0078
 3602SOL    HW110625   2.866   0.880   0.675 -0.5453 -1.2900  0.2229
 3602SOL    HW210626   2.797   0.947   0.544  0.5345 -2.2726 -0.8734
 3603SOL     OW10627   4.646   2.722   4.507  0.1733  0.8334  0.5233
 3603SOL    HW110628   4.560   2.733   4.457 -0.3887  0.6844  1.4305
 3603SOL    HW210629   4.660   2.801   4.567  0.4766  0.6747  0.6660
 3604SOL     OW10630   4.310   1.587   4.570  0.1701 -0.5030  0.1009
 3604SOL    HW110631   4.403   1.621   4.587 -0.0737  0.9408 -1.2663
 3604SOL    HW210632   4.245   1.662   4.580 -0.5855 -0.9454 -1.3013
 3605SOL     OW10633   1.722   0.658   4.558 -0.4690  0.1415 -0.2395
 3605SOL    HW110634   1.792   0.646   4.488  0.6984  0.4695  0.8478
 3605SOL    HW210635   1.648   0.593   4.541  0.4401 -0.7434 -0.9800
 3606SOL     OW10636   1.365   0.630   4.747 -0.0082  0.1613  0.1357
 3606SOL    HW110637   1.387   0.638   4.844 -2.1937 -1.2208  0.8325
 3606SOL    HW210638   1.352   0.533   4.724 -1.3187  0.5805 -1.0702
 3607SOL     OW10639   3.578   2.011   1.471 -0.5478 -0.2599  0.1882
 3607SOL    HW110640   3.505   1.996   1.404  0.1791 -0.2706 -0.6215
 3607SOL    HW210641   3.550   2.083   1.535 -1.7169 -1.0275  0.5870
 3608SOL     OW10642   5.057   1.200   3.985  0.2860  0.4556 -0.8690
 3608SOL    HW110643   5.090   1.134   3.918 -1.4640  0.0477 -1.3642
 3608SOL    HW210644   4.977   1.163   4.032 -0.0278  1.7547 -0.3374
 3609SOL     OW10645   5.042   0.730   3.916 -0.0061 -0.2279  0.1484
 3609SOL    HW110646   5.023   0.642   3.958 -0.2104 -0.1924  0.1275
 3609SOL    HW210647   5.108   0.718   3.841 -1.7819 -0.7310 -1.4160
 3610SOL     OW10648   3.763   1.760   3.760  0.2217  0.0906 -0.3842
 3610SOL    HW110649   3.834   1.827   3.779 -0.0168  0.0992  0.5210
 3610SOL    HW210650   3.765   1.688   3.830 -1.0826  0.4487  0.0418
 3611SOL     OW10651   4.423   4.459   4.808  0.1955  0.0713 -0.1789
 3611SOL    HW110652   4.500   4.517   4.837 -0.4382  0.3885  0.9271
 3611SOL    HW210653   4.408   4.387   4.876 -0.1459 -0.3257 -0.6643
 3612SOL     OW10654   4.172   2.550   3.835  0.0850 -0.3205 -0.2928
 3612SOL    HW110655   4.080   2.551   3.875  0.5122 -0.1441  0.7368
 3612SOL    HW210656   4.235   2.595   3.899  0.7845  0.0520 -1.2353
 3613SOL     OW10657   4.109   0.388   4.925  0.0134  0.1264  0.4026
 3613SOL    HW110658   4.067   0.369   5.013  1.8495  1.8532  1.7619
 3613SOL    HW210659   4.194   0.336   4.917 -0.6351 -0.7930 -0.8346
 3614SOL     OW10660   0.508   1.126   3.877  0.1676  0.1231  0.6436
 3614SOL    HW110661   0.409   1.129   3.864  0.2569 -0.9783 -0.4611
 3614SOL    HW210662   0.552   1.189   3.813  0.3120 -1.5145 -0.9493
 3615SOL     OW10663   4.455   0.757   3.499 -0.4668 -0.1160  0.0834
 3615SOL    HW110664   4.423   0.708   3.580 -0.4313  2.1177  1.5478
 3615SOL    HW210665   4.528   0.705   3.455  0.7226 -0.6362  2.4863
 3616SOL     OW10666   3.980   0.903   4.652  0.3715 -0.3207 -0.4932
 3616SOL    HW110667   4.065   0.862   4.616  0.7629 -0.3144  0.4069
 3616SOL    HW210668   3.962   0.989   4.604  1.1590 -0.0606 -0.3392
 3617SOL     OW10669   0.736   2.756   4.954  0.5779  0.1939  0.1030
 3617SOL    HW110670   0.674   2.781   4.879 -0.4624 -1.8472  0.2076
 3617SOL    HW210671   0.808   2.696   4.918  2.8472  2.8146 -0.0967
 3618SOL     OW10672   2.945   1.199   4.233 -0.5331 -0.3821  0.0029
 3618SOL    HW110673   2.874   1.177   4.300 -1.4784  2.7180  0.1713
 3618SOL    HW210674   2.903   1.239   4.152  0.9402  0.6155 -0.3058
 3619SOL     OW10675   2.150   0.881   3.182  0.2719 -0.5235 -0.5902
 3619SOL    HW110676   2.054   0.874   3.154 -0.1833  1.0457  0.4324
 3619SOL    HW210677   2.181   0.793   3.218 -1.7744 -0.3354  1.9423
 3620SOL     OW10678   4.555   1.848   4.481  0.1668  0.4281 -0.2407
 3620SOL    HW110679   4.514   1.920   4.537  1.3454  0.2671  0.8709
 3620SOL    HW210680   4.615   1.791   4.538 -1.3292 -1.9498 -0.8866
 3621SOL     OW10681   4.098   0.995   3.626  0.1561 -0.1586 -0.1039
 3621SOL    HW110682   4.166   0.974   3.695 -0.6096  0.7710  0.9633
 3621SOL    HW210683   4.118   0.943   3.543  1.2889 -1.0283  0.6820
 3622SOL     OW10684   2.866   0.914   4.400  0.4502  0.1019  0.6537
 3622SOL    HW110685   2.942   0.951   4.347  0.5905 -0.7065  0.2694
 3622SOL    HW210686   2.800   0.986   4.420  0.4851  0.4616 -0.4829
 3623SOL     OW10687   5.039   2.046   4.070  0.2925  0.4117  0.1207
 3623SOL    HW110688   5.020   2.023   3.974  0.2013  1.5850 -0.1619
 3623SOL    HW210689   4.959   2.092   4.110  0.5396  0.4439  0.5858
 3624SOL     OW10690   1.355   0.439   0.293 -0.0086 -0.2705 -0.2076
 3624SOL    HW110691   1.313   0.491   0.368  1.3863 -0.0279  0.4337
 3624SOL    HW210692   1.451   0.467   0.282  0.2172 -1.3228 -1.1555
 3625SOL     OW10693   4.444   1.003   4.959 -0.5863 -0.0062 -0.3562
 3625SOL    HW110694   4.354   1.016   5.001 -0.8651 -0.3669 -0.8241
 3625SOL    HW210695   4.492   0.928   5.006 -0.8425 -0.3177 -0.5819
 3626SOL     OW10696   0.120   1.906   3.850 -0.2045 -0.6097 -0.0022
 3626SOL    HW110697   0.022   1.919   3.835 -0.2894  0.2009  1.1944
 3626SOL    HW210698   0.139   1.901   3.948  1.2790  2.1473 -0.0654
 3627SOL     OW10699   4.215   1.306   3.669 -0.2835 -0.7229 -0.0861
 3627SOL    HW110700   4.160   1.249   3.608  1.2372 -0.4092 -1.8083
 3627SOL    HW210701   4.208   1.402   3.641 -1.2219 -0.2595  1.5601
 3628SOL     OW10702   1.061   0.435   4.372 -0.0036  0.6680  0.6221
 3628SOL    HW110703   1.124   0.480   4.435 -1.1420  1.2749  1.3586
 3628SOL    HW210704   1.110   0.407   4.290  1.6006 -0.5536  1.9535
 3629SOL     OW10705   4.680   2.850   4.156 -0.2702  0.5640  0.1446
 3629SOL    HW110706   4.687   2.813   4.249 -1.3942  0.7412  0.3131
 3629SOL    HW210707   4.737   2.796   4.094  1.5000  1.1979  1.1365
 3630SOL     OW10708   4.272   1.594   3.844  0.1330 -0.1827 -0.2327
 3630SOL    HW110709   4.194   1.584   3.783  0.9635 -1.5051 -1.1141
 3630SOL    HW210710   4.241   1.589   3.939 -0.6983 -2.1372 -0.5662
 3631SOL     OW10711   4.289   2.501   4.238 -0.0419 -0.1475  0.0177
 3631SOL    HW110712   4.312   2.414   4.195  2.3514  0.1290  0.5524
 3631SOL    HW210713   4.190   2.507   4.252 -0.4050 -2.1497 -1.2902
 3632SOL     OW10714   3.199   1.445   4.227 -0.2090 -0.1659 -0.4888
 3632SOL    HW110715   3.222   1.450   4.324 -0.1856 -0.0626 -0.4994
 3632SOL    HW210716   3.116   1.498   4.210 -0.0753  0.0163 -0.5684
 3633SOL     OW10717   4.525   2.010   4.019  0.4955 -0.2586  0.6349
 3633SOL    HW110718   4.541   1.946   4.094 -0.6084 -1.0724  0.1995
 3633SOL    HW210719   4.473   1.965   3.947  0.5741  0.8420 -0.1341
 3634SOL     OW10720   4.942   2.331   0.447 -0.0678  0.7580  0.4480
 3634SOL    HW110721   5.038   2.323   0.423 -0.1490  2.3031 -0.5133
 3634SOL    HW210722   4.927   2.295   0.540  0.8383 -2.3458 -0.5020
 3635SOL     OW10723   4.715   1.669   1.456 -0.0268  0.2630  0.0885
 3635SOL    HW110724   4.761   1.757   1.446 -1.3576  1.0527  0.5603
 3635SOL    HW210725   4.635   1.667   1.396 -0.1194 -0.5489  0.2351
 3636SOL     OW10726   3.088   2.356   0.084  0.0858  0.6432  0.3262
 3636SOL    HW110727   3.024   2.317   0.150  0.9293 -0.3164  0.5905
 3636SOL    HW210728   3.166   2.396   0.132  1.2886 -1.1137 -0.1038
 3637SOL     OW10729   4.926   3.168   1.411  0.5495 -0.4507 -0.0776
 3637SOL    HW110730   4.856   3.150   1.480  0.0277 -0.7279 -0.6751
 3637SOL    HW210731   4.990   3.236   1.446 -0.4380  0.3600  0.2046
 3638SOL     OW10732   3.553   2.663   0.029  0.1061  0.2272  0.8087
 3638SOL    HW110733   3.501   2.744   0.004  1.1100  0.9075  0.8341
 3638SOL    HW210734   3.651   2.686   0.032  0.5840 -1.3657 -0.7334
 3639SOL     OW10735   4.636   2.468   4.942  0.0545  0.5201  0.1583
 3639SOL    HW110736   4.591   2.557   4.928  0.3116  0.4820 -1.0469
 3639SOL    HW210737   4.695   2.449   4.864  0.1436 -0.6320  0.4999
 3640SOL     OW10738   3.539   2.445   2.024  0.0826 -0.4035 -0.1147
 3640SOL    HW110739   3.519   2.359   1.977  0.6664  0.0565 -1.2356
 3640SOL    HW210740   3.606   2.497   1.972  2.3983 -0.7697  2.2724
 3641SOL     OW10741   0.335   4.307   1.839 -0.1303 -0.0120 -0.1681
 3641SOL    HW110742   0.296   4.263   1.920 -0.6384 -1.1741 -1.0101
 3641SOL    HW210743   0.262   4.324   1.773  0.4046  0.1577 -0.7200
 3642SOL     OW10744   5.031   3.397   2.304  0.2877  0.0574 -0.0401
 3642SOL    HW110745   5.062   3.371   2.212 -1.6763  0.5032 -0.8697
 3642SOL    HW210746   4.950   3.343   2.328 -1.7723  2.8135 -0.3619
 3643SOL     OW10747   4.700   2.410   1.777 -0.2972  0.1706  0.2341
 3643SOL    HW110748   4.769   2.478   1.800 -1.1213  0.6909  1.2893
 3643SOL    HW210749   4.701   2.337   1.845 -0.0872 -0.3512 -0.3304
 3644SOL     OW10750   4.453   2.395   2.679  0.1099 -0.2670  0.2940
 3644SOL    HW110751   4.520   2.321   2.679 -1.3410 -1.6402  0.7709
 3644SOL    HW210752   4.428   2.419   2.773 -1.2016 -0.8818  0.1318
 3645SOL     OW10753   4.521   3.161   0.227  0.0382  0.7749  0.1069
 3645SOL    HW110754   4.581   3.086   0.201  0.5528  1.6974 -1.5488
 3645SOL    HW210755   4.489   3.148   0.321  0.6438 -1.1327  0.0888
 3646SOL     OW10756   4.517   2.013   0.382 -1.3346 -0.0938  0.2367
 3646SOL    HW110757   4.489   2.102   0.418  0.1504  0.3227  0.4096
 3646SOL    HW210758   4.585   2.026   0.310 -0.1912 -1.1274  1.0933
 3647SOL     OW10759   3.956   3.563   1.201 -0.0348 -0.2430 -0.6746
 3647SOL    HW110760   3.999   3.479   1.169  0.6906 -0.3333  0.4633
 3647SOL    HW210761   3.997   3.641   1.154  1.6444 -0.3019  0.5747
 3648SOL     OW10762   3.412   2.958   1.372 -0.5437  0.3514 -0.1362
 3648SOL    HW110763   3.439   2.951   1.467 -0.4788 -1.3689 -0.2385
 3648SOL    HW210764   3.425   3.051   1.339  0.3009  0.7472  1.2671
 3649SOL     OW10765   4.193   3.039   2.782 -0.6525  0.4000  0.3169
 3649SOL    HW110766   4.108   3.091   2.778 -0.2661  0.9852 -0.8896
 3649SOL    HW210767   4.194   2.983   2.865 -2.1389  0.4909  0.4269
 3650SOL     OW10768   1.095   2.124   4.443  0.4240 -0.4854  0.3194
 3650SOL    HW110769   1.108   2.106   4.345 -0.4597  1.9785 -0.3401
 3650SOL    HW210770   1.000   2.149   4.460  0.9521  0.9408  1.4442
 3651SOL     OW10771   4.214   1.915   0.533  0.1126 -0.5735  0.5261
 3651SOL    HW110772   4.144   1.850   0.563  0.3642 -0.9460  0.3182
 3651SOL    HW210773   4.304   1.878   0.554  0.3156 -0.9778 -0.9161
 3652SOL     OW10774   3.486   3.765   0.665  0.0749  0.2059 -0.1783
 3652SOL    HW110775   3.516   3.859   0.685  1.0921 -0.3578  1.1117
 3652SOL    HW210776   3.541   3.728   0.591  1.6026 -0.2882  1.1491
 3653SOL     OW10777   1.535   1.896   0.835  0.1614 -0.3377  0.1079
 3653SOL    HW110778   1.602   1.878   0.764  1.0055 -0.6663  0.9622
 3653SOL    HW210779   1.562   1.848   0.919  0.8787  2.4452  1.6029
 3654SOL     OW10780   2.707   2.398   0.647  0.4895 -0.0686  0.2166
 3654SOL    HW110781   2.709   2.442   0.737  0.7761 -1.8423  1.1374
 3654SOL    HW210782   2.781   2.434   0.591 -0.1499  1.5953  0.4083
 3655SOL     OW10783   0.235   1.637   1.341  0.0544 -0.8713 -0.1358
 3655SOL    HW110784   0.295   1.564   1.374 -0.1826 -0.8484  0.3615
 3655SOL    HW210785   0.141   1.618   1.370  0.3695  1.0067  2.5020
 3656SOL     OW10786   4.541   2.253   0.791 -0.1776  0.3481 -0.1420
 3656SOL    HW110787   4.553   2.352   0.787  0.7026  0.2015 -2.3707
 3656SOL    HW210788   4.622   2.211   0.832  0.0560  0.4612 -0.4845
 3657SOL     OW10789   0.001   3.103   1.185  0.4538 -0.1050 -0.3221
 3657SOL    HW110790   0.059   3.076   1.262 -0.3368  0.3604  0.4571
 3657SOL    HW210791  -0.095   3.083   1.208 -0.0922  2.5260 -0.0429
 3658SOL     OW10792   4.802   2.880   1.646  0.3228 -0.6503 -0.1594
 3658SOL    HW110793   4.705   2.878   1.669  0.6867 -1.3884  1.3771
 3658SOL    HW210794   4.824   2.969   1.605 -1.0965 -0.6955 -1.1029
 3659SOL     OW10795   3.472   2.721   1.829 -0.2005  0.1834  0.0031
 3659SOL    HW110796   3.528   2.744   1.908 -0.7576  0.8948  0.2023
 3659SOL    HW210797   3.401   2.656   1.856 -0.2623  0.2675  0.0447
 3660SOL     OW10798   4.172   1.627   0.093  0.2773  0.0775 -0.0692
 3660SOL    HW110799   4.215   1.670   0.173  0.9186 -1.6691  0.5796
 3660SOL    HW210800   4.116   1.551   0.124 -1.1444  0.6520 -1.1504
 3661SOL     OW10801   4.799   1.932   1.467  0.3002  0.5192  0.1098
 3661SOL    HW110802   4.877   1.966   1.519 -0.0695  0.7989  0.4958
 3661SOL    HW210803   4.777   1.995   1.393  0.8821  0.0756 -0.4389
 3662SOL     OW10804   0.366   2.436   1.068  0.0853 -0.1395  0.3623
 3662SOL    HW110805   0.291   2.473   1.013  0.2339  2.9825  2.0462
 3662SOL    HW210806   0.452   2.444   1.017 -0.4588 -2.6574 -1.1101
 3663SOL     OW10807   4.786   3.210   0.827  0.1331 -0.2930 -0.0313
 3663SOL    HW110808   4.702   3.248   0.866  0.5280  1.2198 -0.5893
 3663SOL    HW210809   4.858   3.210   0.896 -0.3718 -1.9192  0.5555
 3664SOL     OW10810   5.058   2.146   1.310 -0.0653  0.5569  0.2717
 3664SOL    HW110811   5.132   2.179   1.251 -0.1126 -0.9808 -0.6966
 3664SOL    HW210812   5.089   2.065   1.360 -1.4768 -1.0036 -1.2376
 3665SOL     OW10813   0.183   3.141   0.211 -0.3457  0.1714  0.0705
 3665SOL    HW110814   0.198   3.084   0.291  0.2353  0.8627  0.4587
 3665SOL    HW210815   0.210   3.091   0.128 -1.0412 -0.5784  0.2822
 3666SOL     OW10816   3.698   3.576   1.419  0.4765 -0.4442  0.1915
 3666SOL    HW110817   3.720   3.510   1.492  1.5595 -0.6852 -0.3464
 3666SOL    HW210818   3.755   3.558   1.339  0.4229  0.8321 -0.1525
 3667SOL     OW10819   2.464   4.161   2.331  0.4742  0.2032 -0.2203
 3667SOL    HW110820   2.560   4.187   2.343  0.3046  1.1170 -0.7958
 3667SOL    HW210821   2.436   4.177   2.237 -0.1027 -0.5644 -0.1873
 3668SOL     OW10822   3.670   2.537   4.666 -0.1850 -0.0072  1.0405
 3668SOL    HW110823   3.617   2.613   4.705 -1.0379  0.3378 -0.6643
 3668SOL    HW210824   3.634   2.515   4.576  1.3627 -1.1050  0.6476
 3669SOL     OW10825   4.072   2.389   1.483 -0.0470 -0.0125 -0.0011
 3669SOL    HW110826   3.988   2.348   1.446 -0.3830 -1.4160  2.1227
 3669SOL    HW210827   4.068   2.387   1.583  1.6578  1.7884  0.1579
 3670SOL     OW10828   4.331   4.429   4.118  0.5664 -0.1603 -0.0961
 3670SOL    HW110829   4.374   4.517   4.137  1.7415 -0.9629  1.1139
 3670SOL    HW210830   4.340   4.408   4.021  2.4690 -0.0513  0.0242
 3671SOL     OW10831   3.712   3.343   1.625 -0.4930 -0.1226  0.3320
 3671SOL    HW110832   3.754   3.397   1.697 -0.0233  1.0407 -0.7814
 3671SOL    HW210833   3.724   3.246   1.645 -1.1032  0.1470  2.2219
 3672SOL     OW10834   0.408   2.836   0.832 -0.1110 -0.2927  0.4315
 3672SOL    HW110835   0.446   2.762   0.777 -0.0356 -0.3198  0.5203
 3672SOL    HW210836   0.471   2.914   0.833  0.0183 -0.4005  0.7154
 3673SOL     OW10837   3.599   3.400   4.522 -0.1021  0.0852  0.3090
 3673SOL    HW110838   3.670   3.406   4.591  2.2405  1.6494 -2.0558
 3673SOL    HW210839   3.548   3.314   4.534  0.6498 -0.0443  3.4106
 3674SOL     OW10840   4.897   2.757   4.809 -0.0411 -0.3042 -0.1272
 3674SOL    HW110841   4.829   2.820   4.770  0.6403 -0.6856 -2.0733
 3674SOL    HW210842   4.988   2.797   4.800  0.1107 -0.1781  1.6637
 3675SOL     OW10843   0.215   3.079   4.473 -0.4582 -0.1995  0.1033
 3675SOL    HW110844   0.309   3.084   4.440 -0.8861 -0.5987 -1.2566
 3675SOL    HW210845   0.194   2.985   4.500 -0.2687  0.0247  1.0623
 3676SOL     OW10846   4.157   1.231   1.504  0.2984  0.4967  0.6152
 3676SOL    HW110847   4.238   1.215   1.447 -1.4832 -0.2526 -1.8727
 3676SOL    HW210848   4.132   1.327   1.500  0.8764  0.6770  1.1647
 3677SOL     OW10849   0.737   3.843   0.378 -0.1025 -0.4763  0.0324
 3677SOL    HW110850   0.777   3.870   0.466 -1.3459 -0.5190  0.6314
 3677SOL    HW210851   0.784   3.890   0.304  2.2626 -1.8571  0.5372
 3678SOL     OW10852   0.340   3.545   5.042  0.1357  0.4373 -0.5485
 3678SOL    HW110853   0.295   3.553   4.953 -2.2927 -0.5436  0.5005
 3678SOL    HW210854   0.327   3.629   5.094  0.8879  0.7247 -0.8128
 3679SOL     OW10855   4.653   2.198   1.322  0.1307 -0.2292  0.2472
 3679SOL    HW110856   4.699   2.255   1.389 -0.0335 -1.4105  1.4185
 3679SOL    HW210857   4.555   2.195   1.343 -0.0405  0.0084 -0.5126
 3680SOL     OW10858   4.761   3.171   1.619  0.1562 -0.5604  0.1078
 3680SOL    HW110859   4.731   3.192   1.712 -0.3161 -0.9943  0.0579
 3680SOL    HW210860   4.681   3.153   1.562  0.3970  0.4195 -0.5705
 3681SOL     OW10861   4.786   1.913   0.706  0.2138 -0.3397  0.2900
 3681SOL    HW110862   4.784   1.939   0.610  1.1864 -0.9236  0.1027
 3681SOL    HW210863   4.759   1.817   0.716 -1.3309  0.1066  0.7711
 3682SOL     OW10864   4.850   1.418   4.641  0.0261  0.2719  0.2045
 3682SOL    HW110865   4.833   1.324   4.672 -0.4709  0.4066  0.3511
 3682SOL    HW210866   4.945   1.426   4.610  0.4197  0.0325  1.3039
 3683SOL     OW10867   2.443   4.375   1.471 -0.1835 -0.2033  0.5750
 3683SOL    HW110868   2.533   4.410   1.497  0.6377 -2.6406  1.2661
 3683SOL    HW210869   2.392   4.446   1.422  1.8890  1.4089  0.6486
 3684SOL     OW10870   0.650   3.135   0.312 -0.3543  0.0189  0.4290
 3684SOL    HW110871   0.577   3.199   0.335 -1.0256 -0.5633 -0.0600
 3684SOL    HW210872   0.693   3.163   0.226 -2.2034 -1.4605 -1.0403
 3685SOL     OW10873   4.456   2.235   0.503  0.2849  0.2790 -0.3697
 3685SOL    HW110874   4.497   2.237   0.594  2.2253 -0.0059 -1.1909
 3685SOL    HW210875   4.429   2.327   0.476  0.6875  0.5303  0.0734
 3686SOL     OW10876   3.293   1.493   0.723 -0.2494  0.3350 -0.0376
 3686SOL    HW110877   3.269   1.589   0.729  0.9380  0.8319 -2.2666
 3686SOL    HW210878   3.393   1.483   0.725 -0.3591 -0.9757  1.2346
 3687SOL     OW10879   4.843   2.786   1.047 -0.6142 -0.4235 -0.0646
 3687SOL    HW110880   4.827   2.704   0.992 -2.2955  0.7209 -1.3909
 3687SOL    HW210881   4.755   2.820   1.082  0.0864  0.6343  0.7478
 3688SOL     OW10882   0.434   2.094   4.415  0.6438 -0.8996  0.4369
 3688SOL    HW110883   0.435   1.995   4.426  0.2339 -0.9480  0.0355
 3688SOL    HW210884   0.340   2.127   4.415  0.7352 -0.6139 -0.3400
 3689SOL     OW10885   0.114   1.797   1.794 -0.2049  0.0135 -0.3045
 3689SOL    HW110886   0.097   1.884   1.840  0.6037 -0.1859  0.4041
 3689SOL    HW210887   0.196   1.806   1.737  0.8212 -0.7091  1.0073
 3690SOL     OW10888   4.761   2.956   0.702 -0.2165 -0.2994 -0.0501
 3690SOL    HW110889   4.760   3.044   0.749  2.2190 -1.2388  2.0158
 3690SOL    HW210890   4.805   2.966   0.613  0.6520  0.4876  0.4441
 3691SOL     OW10891   4.270   2.833   4.935  0.4428 -0.2259 -0.0071
 3691SOL    HW110892   4.282   2.782   5.019  0.3130 -0.0034  0.1479
 3691SOL    HW210893   4.193   2.795   4.884 -0.1659  0.3071  0.4902
 3692SOL     OW10894   5.059   0.412   4.961  0.1547 -0.6390  0.3166
 3692SOL    HW110895   5.131   0.402   5.030  0.0350 -1.3254  0.3495
 3692SOL    HW210896   5.013   0.324   4.947 -2.0943  0.1857  1.8419
 3693SOL     OW10897   0.290   2.995   5.063 -0.7795 -0.5220 -0.2695
 3693SOL    HW110898   0.340   3.061   5.007  0.2563  1.1264  2.3850
 3693SOL    HW210899   0.341   2.909   5.066  0.4701  0.1951  0.0656
 3694SOL     OW10900   3.425   1.792   2.258 -0.4026  0.4684 -0.4643
 3694SOL    HW110901   3.460   1.885   2.251 -0.9924  0.7818  0.6825
 3694SOL    HW210902   3.498   1.728   2.233 -0.3284  1.2357 -2.4137
 3695SOL     OW10903   4.339   2.279   1.796  0.8627 -0.0857 -0.4255
 3695SOL    HW110904   4.402   2.330   1.737 -1.1890  2.4534 -0.5785
 3695SOL    HW210905   4.345   2.313   1.890 -1.0840  1.0626 -0.6762
 3696SOL     OW10906   3.625   2.486   0.686  0.2203 -0.0873  0.4813
 3696SOL    HW110907   3.647   2.499   0.783  1.6589  0.7818  0.0771
 3696SOL    HW210908   3.582   2.569   0.651  0.0026 -0.2773  0.3034
 3697SOL     OW10909   3.887   2.769   0.729  0.4992  0.1251  0.1039
 3697SOL    HW110910   3.816   2.801   0.791 -2.2588 -0.4278 -2.5562
 3697SOL    HW210911   3.915   2.844   0.668  2.0324  0.2346  0.8725
 3698SOL     OW10912   4.628   3.390   0.388  0.2806 -0.0693 -0.3590
 3698SOL    HW110913   4.614   3.311   0.329 -1.6394 -0.4976  0.6074
 3698SOL    HW210914   4.695   3.367   0.458  0.1985 -0.6235 -0.4566
 3699SOL     OW10915   0.857   3.920   1.479  0.0959 -0.2630  0.1958
 3699SOL    HW110916   0.784   3.953   1.418  0.5818  0.0736 -0.2213
 3699SOL    HW210917   0.901   3.998   1.523  1.8418 -0.2274 -1.4713
 3700SOL     OW10918   0.085   2.047   1.883  0.3928 -0.1333  0.1698
 3700SOL    HW110919   0.082   2.051   1.983 -3.0354  2.2606  0.1514
 3700SOL    HW210920   0.157   2.107   1.849  2.5098 -2.0035  1.1175
 3701SOL     OW10921   4.615   3.691   1.528  0.1634  0.3686 -0.4123
 3701SOL    HW110922   4.669   3.743   1.463 -1.1291  0.4523 -1.4541
 3701SOL    HW210923   4.616   3.594   1.503  0.2596  0.2944 -0.1250
 3702SOL     OW10924   3.884   2.524   0.636 -0.6973  0.1886 -0.5610
 3702SOL    HW110925   3.883   2.612   0.683 -1.8800 -0.0374 -0.1186
 3702SOL    HW210926   3.793   2.482   0.643 -0.4682 -0.5347 -1.7681
 3703SOL     OW10927   4.338   1.769   0.245  0.4556 -0.4952 -0.2363
 3703SOL    HW110928   4.364   1.821   0.326 -0.4554 -0.5691  0.1209
 3703SOL    HW210929   4.408   1.779   0.175  0.6551  0.6093  0.0960
 3704SOL     OW10930   4.463   3.123   1.224  0.6899  0.0833  0.4404
 3704SOL    HW110931   4.482   3.153   1.130  0.0147 -1.2078 -0.1287
 3704SOL    HW210932   4.364   3.126   1.241  0.6048 -1.6099  0.4070
 3705SOL     OW10933   3.315   2.485   4.469 -0.1302 -0.1686 -0.3927
 3705SOL    HW110934   3.274   2.398   4.444 -1.4381  0.3015  0.0331
 3705SOL    HW210935   3.243   2.553   4.483  0.7478  0.5033  1.1360
 3706SOL     OW10936   3.862   2.726   1.942  0.3566 -0.5953  0.0938
 3706SOL    HW110937   3.847   2.811   1.891 -0.2954  0.2187  1.5833
 3706SOL    HW210938   3.815   2.651   1.895 -1.7897  0.4714  0.4178
 3707SOL     OW10939   4.403   3.939   2.228 -0.4078  0.4112  0.3196
 3707SOL    HW110940   4.472   3.976   2.291  1.7416 -1.1756 -0.9729
 3707SOL    HW210941   4.376   3.848   2.259 -0.5894  0.3118 -0.1342
 3708SOL     OW10942   3.023   3.576   1.416 -0.9955  0.4536  0.8754
 3708SOL    HW110943   3.036   3.671   1.444 -1.1237  1.0060 -0.8432
 3708SOL    HW210944   2.952   3.534   1.473 -1.5780  1.6545  1.0663
 3709SOL     OW10945   4.173   2.610   1.151  0.2720 -0.3348 -0.3948
 3709SOL    HW110946   4.270   2.588   1.162 -0.0297 -0.6178  2.5817
 3709SOL    HW210947   4.142   2.664   1.230 -2.1119 -0.6615 -1.0280
 3710SOL     OW10948   4.302   2.386   1.355  0.1389  0.1261 -0.5428
 3710SOL    HW110949   4.209   2.406   1.386  0.4690  0.8422 -0.0026
 3710SOL    HW210950   4.298   2.342   1.265 -0.8567 -2.2573  0.5743
 3711SOL     OW10951   3.667   2.949   0.551 -0.1279 -0.1771 -0.3248
 3711SOL    HW110952   3.633   3.026   0.604 -0.2996 -0.4234 -0.0809
 3711SOL    HW210953   3.766   2.958   0.540 -0.1358  0.0341 -0.2234
 3712SOL     OW10954   4.814   1.879   1.800  0.6572  0.9833 -0.3519
 3712SOL    HW110955   4.720   1.913   1.807  0.3896  0.4258 -1.1304
 3712SOL    HW210956   4.861   1.925   1.725  0.3233 -0.2250 -1.3531
 3713SOL     OW10957   4.458   1.029   0.342  0.0778 -1.2755 -0.1071
 3713SOL    HW110958   4.396   0.973   0.398  1.3347 -1.6923  0.9056
 3713SOL    HW210959   4.410   1.113   0.315 -0.6411 -1.1288  1.4646
 3714SOL     OW10960   4.943   1.211   1.013  0.2010 -0.1996 -0.6587
 3714SOL    HW110961   4.954   1.186   0.917 -0.8098 -0.7836 -0.6364
 3714SOL    HW210962   5.032   1.215   1.057  0.5168 -3.3215 -0.7807
 3715SOL     OW10963   4.521   2.219   2.267  0.0351  0.0452  0.9393
 3715SOL    HW110964   4.556   2.130   2.297  1.3029  0.3053  0.2965
 3715SOL    HW210965   4.588   2.290   2.288  0.3593  0.4287 -1.1712
 3716SOL     OW10966   3.680   3.025   0.005 -0.8235  0.4416 -0.2735
 3716SOL    HW110967   3.723   3.114  -0.013  2.3901 -1.2329 -1.7583
 3716SOL    HW210968   3.658   3.019   0.102 -1.5064  2.9627 -0.1893
 3717SOL     OW10969   3.057   3.690   0.764 -0.0280 -0.2502 -0.7396
 3717SOL    HW110970   2.963   3.663   0.742 -0.5445  0.9546 -0.1155
 3717SOL    HW210971   3.115   3.681   0.683 -0.4643 -1.8667 -0.8976
 3718SOL     OW10972   5.039   1.682   4.474 -0.3251 -0.3292  0.0656
 3718SOL    HW110973   4.976   1.631   4.415  0.9769  0.7593 -2.4302
 3718SOL    HW210974   4.988   1.754   4.521 -1.2603 -0.6345 -0.4403
 3719SOL     OW10975   3.815   1.928   2.287 -0.1730  0.0944 -0.1101
 3719SOL    HW110976   3.747   1.962   2.222 -0.7629  0.5243  0.7249
 3719SOL    HW210977   3.887   1.996   2.299 -0.7049  0.5383  0.6133
 3720SOL     OW10978   3.940   1.636   0.972 -0.3818 -0.7917  0.2989
 3720SOL    HW110979   3.857   1.689   0.953 -0.0704 -0.4727 -0.1741
 3720SOL    HW210980   3.918   1.563   1.037 -2.1533 -3.5941 -3.0808
 3721SOL     OW10981   4.003   2.582   2.139 -0.2651  0.2095 -0.0200
 3721SOL    HW110982   3.953   2.628   2.065 -1.6395 -0.1982  0.6332
 3721SOL    HW210983   4.021   2.647   2.213  0.5264  0.4503 -0.4132
 3722SOL     OW10984   4.180   1.958   0.935  0.1857 -0.1591  0.0175
 3722SOL    HW110985   4.190   1.864   0.968 -0.6847 -0.7794 -1.3936
 3722SOL    HW210986   4.270   1.993   0.906  0.2248 -1.2937 -1.3162
 3723SOL     OW10987   4.055   3.625   0.718 -0.1938  0.0292 -0.1654
 3723SOL    HW110988   4.092   3.593   0.630  0.4759 -0.3989  0.2613
 3723SOL    HW210989   4.001   3.708   0.703 -2.0637 -1.2939 -1.3368
 3724SOL     OW10990   4.351   2.325   1.089 -0.0707 -0.0472  0.7483
 3724SOL    HW110991   4.296   2.244   1.070  1.4131 -1.3290  1.6594
 3724SOL    HW210992   4.366   2.376   1.005  1.0097 -2.0716 -0.3538
 3725SOL     OW10993   5.036   2.613   1.404 -0.2631  0.2195  0.4595
 3725SOL    HW110994   5.045   2.583   1.309 -1.4762 -0.9001  0.6725
 3725SOL    HW210995   4.951   2.664   1.414 -0.8286 -0.8364  1.2092
 3726SOL     OW10996   4.518   2.920   1.846 -0.2388 -0.2833  0.2346
 3726SOL    HW110997   4.541   3.011   1.812  1.0245 -0.1070  1.4565
 3726SOL    HW210998   4.528   2.853   1.773 -0.9186  0.5102 -0.6081
 3727SOL     OW10999   0.407   1.673   5.039 -0.4476  0.4095 -0.4356
 3727SOL    HW111000   0.478   1.638   4.978 -0.2198 -1.4614  0.7981
 3727SOL    HW211001   0.357   1.596   5.078  0.4585  1.3540  2.9247
 3728SOL     OW11002   5.039   2.763   0.196  0.3500  0.1676  0.2428
 3728SOL    HW111003   5.005   2.675   0.163  1.9818 -0.8050  1.0589
 3728SOL    HW211004   4.998   2.783   0.285 -0.4194  0.5062 -0.1762
 3729SOL     OW11005   3.408   2.210   1.943 -0.5039  0.5967 -0.3712
 3729SOL    HW111006   3.428   2.118   1.910  0.8920  0.7576 -0.0317
 3729SOL    HW211007   3.347   2.205   2.023 -0.4212 -0.0269 -0.3475
 3730SOL     OW11008   4.286   3.105   4.925  0.0117 -0.0789  0.1774
 3730SOL    HW111009   4.302   3.007   4.933 -0.4175 -0.0017  3.2361
 3730SOL    HW211010   4.297   3.148   5.015  0.2780  2.7196 -1.0810
 3731SOL     OW11011   0.077   1.933   1.433  0.3497  0.1176 -0.5024
 3731SOL    HW111012   0.067   1.834   1.430 -0.9181  0.1660  0.8367
 3731SOL    HW211013   0.174   1.957   1.423  0.6211 -1.2155 -1.2514
 3732SOL     OW11014   5.009   2.385   1.027 -0.0660 -0.0025  0.2122
 3732SOL    HW111015   5.096   2.337   1.030  0.3458  0.7167 -0.1221
 3732SOL    HW211016   4.944   2.340   1.089 -0.1052 -1.7756 -1.0469
 3733SOL     OW11017   4.611   3.952   1.662  0.3228  0.4400  0.2631
 3733SOL    HW111018   4.561   3.961   1.577  0.3646  2.4146  0.4183
 3733SOL    HW211019   4.593   3.862   1.702 -1.7266  0.4519 -0.5370
 3734SOL     OW11020   4.539   2.495   0.655 -0.2015  0.3823 -0.4030
 3734SOL    HW111021   4.620   2.535   0.612 -0.0183 -0.2276 -0.6243
 3734SOL    HW211022   4.464   2.492   0.588 -0.1260  0.0839 -0.4761
 3735SOL     OW11023   4.506   2.744   1.627 -0.3544 -0.1119 -0.3823
 3735SOL    HW111024   4.505   2.664   1.687  0.1108 -0.5319 -0.9196
 3735SOL    HW211025   4.471   2.719   1.537  1.6950 -0.2624 -1.2002
 3736SOL     OW11026   4.168   3.016   0.875 -0.6908 -0.5563  0.4020
 3736SOL    HW111027   4.104   3.077   0.830 -0.2175 -0.1005  0.3373
 3736SOL    HW211028   4.118   2.946   0.925 -1.2307 -0.4242  0.0519
 3737SOL     OW11029   0.012   2.658   0.620 -0.1635  0.0514 -0.3802
 3737SOL    HW111030   0.046   2.575   0.665  0.0052  0.8205  0.9690
 3737SOL    HW211031  -0.087   2.666   0.634  0.1836  1.3946  1.8470
 3738SOL     OW11032   4.981   1.894   0.152 -0.0648 -0.7780 -0.1699
 3738SOL    HW111033   4.912   1.845   0.098  0.4611  1.2291 -2.8829
 3738SOL    HW211034   5.040   1.829   0.198 -0.6906 -2.6584 -1.8661
 3739SOL     OW11035   4.068   2.322   2.130 -0.3131  0.0499  0.7197
 3739SOL    HW111036   4.062   2.422   2.137  0.7293  0.2358 -0.6808
 3739SOL    HW211037   4.002   2.289   2.062 -0.3186 -0.1633  0.8276
 3740SOL     OW11038   3.244   2.256   1.598  0.4303 -0.4854  0.0526
 3740SOL    HW111039   3.197   2.253   1.510  1.2992  2.0483 -0.5868
 3740SOL    HW211040   3.180   2.285   1.669  0.1551 -0.8100 -0.0565
 3741SOL     OW11041   4.387   3.853   1.269  0.3906 -0.4237  0.1589
 3741SOL    HW111042   4.442   3.786   1.219  1.6269  0.6405  0.0704
 3741SOL    HW211043   4.374   3.934   1.213 -0.0110 -0.0652  0.7607
 3742SOL     OW11044   0.076   2.828   4.309 -0.3001  0.0111 -0.3290
 3742SOL    HW111045   0.114   2.744   4.271 -0.6538 -0.1071 -0.4234
 3742SOL    HW211046   0.103   2.837   4.405  1.5744  0.8773 -0.8818
 3743SOL     OW11047   4.075   2.891   1.665 -0.4398 -0.3552  0.5668
 3743SOL    HW111048   4.023   2.808   1.645  0.0225 -0.5978  0.3586
 3743SOL    HW211049   4.169   2.866   1.690  0.2854  0.1808 -1.4102
 3744SOL     OW11050   4.801   2.755   1.414  0.4773 -0.2605 -0.3273
 3744SOL    HW111051   4.726   2.790   1.358 -0.0751 -0.4785  0.2588
 3744SOL    HW211052   4.797   2.797   1.505  1.0756 -0.2633 -0.2963
 3745SOL     OW11053   4.704   4.183   1.208  0.3422  0.2901  0.2441
 3745SOL    HW111054   4.700   4.272   1.163 -0.6309 -0.1805 -0.6364
 3745SOL    HW211055   4.685   4.193   1.306 -0.5171  0.9455  0.0104
 3746SOL     OW11056   4.112   2.803   1.339 -0.6536 -0.0225  0.2065
 3746SOL    HW111057   4.208   2.819   1.360 -0.6534 -0.0458  0.2227
 3746SOL    HW211058   4.066   2.766   1.420 -0.6157 -0.2659  0.1194
 3747SOL     OW11059   3.467   3.304   2.545  0.7853  0.0100 -0.0246
 3747SOL    HW111060   3.503   3.311   2.451 -1.1064 -2.2114 -1.0007
 3747SOL    HW211061   3.538   3.266   2.604  1.9384  1.2396 -0.5351
 3748SOL     OW11062   0.087   3.294   4.623  0.1812  0.4160 -0.3032
 3748SOL    HW111063   0.081   3.380   4.573 -0.8096  0.0216 -0.8982
 3748SOL    HW211064   0.143   3.229   4.571  0.1826  0.4094 -0.2934
 3749SOL     OW11065   0.227   3.149   1.374  0.2467 -0.1320 -0.6487
 3749SOL    HW111066   0.291   3.089   1.325  0.9322  0.0605 -0.0104
 3749SOL    HW211067   0.205   3.228   1.317  0.8154 -0.0527 -0.7665
 3750SOL     OW11068   3.699   2.534   0.940  0.0211 -0.2282 -0.0962
 3750SOL    HW111069   3.777   2.583   0.979 -0.3950  0.1018  0.3316
 3750SOL    HW211070   3.645   2.493   1.014 -1.7234  1.8073 -0.1174
 3751SOL     OW11071   4.547   1.981   1.116  0.2015 -0.5320  0.0712
 3751SOL    HW111072   4.644   1.991   1.138 -0.1633  0.5037  1.2867
 3751SOL    HW211073   4.492   2.014   1.192 -1.1232 -1.8674 -0.2650
 3752SOL     OW11074   4.590   3.195   1.844 -0.2555  0.2057  0.5466
 3752SOL    HW111075   4.515   3.260   1.839 -1.0322 -0.6975 -0.0342
 3752SOL    HW211076   4.599   3.160   1.937 -0.0507  0.8756  0.7847
 3753SOL     OW11077   0.789   2.364   0.490 -0.1454 -0.4993  0.3759
 3753SOL    HW111078   0.840   2.282   0.461 -0.9762 -1.1007  0.5934
 3753SOL    HW211079   0.727   2.392   0.416 -0.4634 -0.5586  0.6198
 3754SOL     OW11080   2.397   1.161   1.167  0.4675  0.4209  0.4545
 3754SOL    HW111081   2.314   1.108   1.186  1.1491 -0.5641  0.7163
 3754SOL    HW211082   2.376   1.232   1.099 -0.0595 -1.3635 -1.3593
 3755SOL     OW11083   1.364   3.598   0.109  0.5971  0.1422 -0.1014
 3755SOL    HW111084   1.404   3.509   0.131  0.9869  0.3315 -0.0312
 3755SOL    HW211085   1.309   3.590   0.026 -0.5033 -0.4704  0.6699
 3756SOL     OW11086   0.106   1.889   1.148  0.3929 -0.0770 -0.1726
 3756SOL    HW111087   0.187   1.841   1.184  1.9613  2.0006 -0.7586
 3756SOL    HW211088   0.135   1.958   1.081 -1.8076  1.3565  0.2609
 3757SOL     OW11089   1.163   3.056   4.262 -0.1174 -0.2831  0.4242
 3757SOL    HW111090   1.241   3.046   4.324  0.5691  0.4396 -0.2961
 3757SOL    HW211091   1.185   3.124   4.192 -2.0913  1.3291  1.2884
 3758SOL     OW11092   4.462   2.688   1.094 -0.0751  0.0706 -0.0390
 3758SOL    HW111093   4.504   2.597   1.091  0.3060  0.2388  0.1776
 3758SOL    HW211094   4.418   2.706   1.006 -0.2728 -0.3804 -0.0348
 3759SOL     OW11095   4.798   4.081   1.778  0.2310 -0.3265 -0.1978
 3759SOL    HW111096   4.731   4.030   1.725 -0.7415  0.1415  0.5642
 3759SOL    HW211097   4.786   4.062   1.875 -1.2449  2.4943  0.2890
 3760SOL     OW11098   4.349   2.792   0.862  0.4685  0.1525 -0.1967
 3760SOL    HW111099   4.320   2.887   0.878  0.2076 -0.0272  0.4108
 3760SOL    HW211100   4.269   2.732   0.863  0.6803 -0.1299 -0.1400
 3761SOL     OW11101   4.758   2.416   4.704 -0.1211 -0.2182 -0.2529
 3761SOL    HW111102   4.760   2.316   4.708  0.4654 -0.2830 -1.4310
 3761SOL    HW211103   4.736   2.445   4.610 -1.3961  0.7729  0.3238
 3762SOL     OW11104   3.909   2.013   0.723  0.3587 -0.2115  0.4326
 3762SOL    HW111105   3.845   2.037   0.796  0.9102 -0.1459  0.9037
 3762SOL    HW211106   3.963   2.093   0.699 -1.4391  0.4413 -1.7434
 3763SOL     OW11107   3.352   3.308   1.413  0.1842 -0.0774 -0.5000
 3763SOL    HW111108   3.407   3.368   1.471  0.5801  2.9874 -3.6624
 3763SOL    HW211109   3.290   3.364   1.358  0.8521 -2.4944 -4.0393
 3764SOL     OW11110   4.513   1.679   2.114 -0.3111  0.0641 -0.0382
 3764SOL    HW111111   4.443   1.746   2.139 -1.0508 -0.7689  0.1951
 3764SOL    HW211112   4.478   1.620   2.041  1.0246  1.0939 -1.5764
 3765SOL     OW11113   0.276   1.905   2.257  0.1227  0.0425  0.3386
 3765SOL    HW111114   0.241   1.951   2.338 -0.4679 -0.5005  0.4052
 3765SOL    HW211115   0.277   1.806   2.273  0.7752 -0.0138 -0.0231
 3766SOL     OW11116   4.281   3.567   4.048  0.3722 -0.9179 -0.4551
 3766SOL    HW111117   4.221   3.642   4.020 -0.0359 -1.4222 -0.9502
 3766SOL    HW211118   4.236   3.513   4.119  0.5132 -0.9289 -0.3718
 3767SOL     OW11119   4.413   3.384   1.811 -0.0138 -0.0232  0.4869
 3767SOL    HW111120   4.415   3.481   1.786  2.3112 -0.2302 -0.3501
 3767SOL    HW211121   4.364   3.373   1.897  0.5237  2.0333  1.1102
 3768SOL     OW11122   1.333   2.468   0.969  0.2736 -0.2050 -0.1938
 3768SOL    HW111123   1.245   2.484   1.013  1.2559  1.7251  1.2036
 3768SOL    HW211124   1.337   2.518   0.882 -0.1163 -0.5975 -0.4436
 3769SOL     OW11125   4.837   4.143   0.626 -0.5452  0.5212 -0.0671
 3769SOL    HW111126   4.804   4.219   0.571 -0.0162  2.1634  1.7835
 3769SOL    HW211127   4.761   4.082   0.648 -1.3132  1.3917 -0.2595
 3770SOL     OW11128   4.321   2.837   4.565 -0.5153 -0.0767 -0.5703
 3770SOL    HW111129   4.364   2.799   4.484 -1.1377 -0.5256 -0.6933
 3770SOL    HW211130   4.317   2.767   4.637  0.3152  0.4067 -0.0347
 3771SOL     OW11131   4.599   2.458   1.134 -0.5878 -0.0091 -0.3180
 3771SOL    HW111132   4.518   2.400   1.131 -1.1322  0.7199 -0.0284
 3771SOL    HW211133   4.639   2.454   1.225 -0.4032 -0.2195 -0.4066
 3772SOL     OW11134   4.961   2.572   4.527  0.4005 -0.3369 -0.2275
 3772SOL    HW111135   4.922   2.596   4.438 -0.0994  2.8742  0.7116
 3772SOL    HW211136   4.889   2.573   4.596  1.0538 -1.1635  0.4922
 3773SOL     OW11137   0.302   4.218   1.503  0.3792  0.1009  0.3554
 3773SOL    HW111138   0.256   4.164   1.432 -0.6888  0.6859  0.5840
 3773SOL    HW211139   0.401   4.202   1.497  0.3244  0.1176 -1.2481
 3774SOL     OW11140   3.754   3.042   1.637  0.8908 -0.0384 -0.4899
 3774SOL    HW111141   3.769   3.020   1.541  2.4150 -2.8862  0.2952
 3774SOL    HW211142   3.666   3.006   1.667  0.9080 -0.1268 -0.5470
 3775SOL     OW11143   5.008   3.313   5.056  0.0563  0.2728 -0.3675
 3775SOL    HW111144   5.012   3.226   5.007 -0.4113 -0.8727  1.5176
 3775SOL    HW211145   4.922   3.360   5.034  1.1985  1.3717 -3.0247
 3776SOL     OW11146   3.337   3.087   2.237 -0.1302 -0.4369  0.2329
 3776SOL    HW111147   3.313   3.053   2.328  0.9616  1.6143  1.3637
 3776SOL    HW211148   3.272   3.158   2.210 -0.5518 -1.1551 -0.6979
 3777SOL     OW11149   3.213   2.141   1.022 -0.1918  0.1099  0.0670
 3777SOL    HW111150   3.117   2.138   1.049 -0.6751 -0.7827 -1.6289
 3777SOL    HW211151   3.245   2.236   1.020 -0.7983  0.3616  1.3758
 3778SOL     OW11152   3.922   3.044   1.853  0.6770  1.1589 -0.7074
 3778SOL    HW111153   3.868   3.042   1.768  1.3922 -0.3485 -1.1685
 3778SOL    HW211154   4.008   2.995   1.838 -0.6072 -2.2388  1.8028
 3779SOL     OW11155   4.034   3.119   1.511 -0.0319  0.3624 -0.0524
 3779SOL    HW111156   4.029   3.043   1.576  2.8863  0.8500  0.8861
 3779SOL    HW211157   4.045   3.205   1.560  0.3601  0.9603 -1.1476
 3780SOL     OW11158   4.804   2.183   1.928 -0.0842 -0.9057 -0.3281
 3780SOL    HW111159   4.834   2.159   1.836  0.9758  1.9647 -0.8385
 3780SOL    HW211160   4.884   2.192   1.987 -0.3755  1.1973 -0.1994
 3781SOL     OW11161   4.272   3.053   2.315  0.2614 -0.2370 -0.0684
 3781SOL    HW111162   4.211   3.091   2.385  1.9087  0.4405  1.0436
 3781SOL    HW211163   4.217   3.014   2.241 -1.5138  0.8597  0.6117
 3782SOL     OW11164   4.475   1.498   0.333  0.1862  0.1506 -0.1434
 3782SOL    HW111165   4.488   1.527   0.428  0.0735 -2.1390  0.6229
 3782SOL    HW211166   4.428   1.570   0.283  1.3597  1.9391  1.1876
 3783SOL     OW11167   3.918   3.319   0.293  0.5157  0.5858  0.0818
 3783SOL    HW111168   3.903   3.331   0.195  0.7502 -2.4063 -0.4126
 3783SOL    HW211169   4.005   3.273   0.308 -0.9775 -2.1089  1.3511
 3784SOL     OW11170   4.584   4.033   2.415 -0.4005  0.0142 -0.1437
 3784SOL    HW111171   4.580   4.117   2.361  0.5108 -0.6418 -1.2806
 3784SOL    HW211172   4.679   4.015   2.441 -0.6331 -0.5085  0.3749
 3785SOL     OW11173   3.534   2.248   0.758 -0.4038  0.8020  0.5210
 3785SOL    HW111174   3.474   2.191   0.702  0.9932 -0.0385 -0.1724
 3785SOL    HW211175   3.548   2.336   0.713 -0.0467  0.4881  0.0077
 3786SOL     OW11176   3.270   4.094   4.999 -0.4361  0.1686  0.7690
 3786SOL    HW111177   3.281   4.123   4.904  3.6039 -2.4736  0.2157
 3786SOL    HW211178   3.283   4.173   5.059 -0.0302  1.3426 -0.7942
 3787SOL     OW11179   4.012   2.383   1.179 -0.0704  0.6383 -0.5542
 3787SOL    HW111180   4.022   2.327   1.097  0.0953 -1.4039  0.7793
 3787SOL    HW211181   4.088   2.449   1.184  1.2464 -0.8015 -0.8785
 3788SOL     OW11182   3.311   2.243   2.992 -0.0540 -0.1410 -0.2313
 3788SOL    HW111183   3.274   2.151   2.974  0.2106 -0.4503  0.7712
 3788SOL    HW211184   3.399   2.252   2.945  1.0847 -1.2824  1.5708
 3789SOL     OW11185   2.989   3.646   2.370  0.4514 -0.4731 -0.5961
 3789SOL    HW111186   2.998   3.579   2.297 -0.2521 -2.9288  1.4050
 3789SOL    HW211187   3.078   3.684   2.392  0.8087 -0.4070 -2.0836
 3790SOL     OW11188   0.316   2.931   2.536  0.7331 -0.0793  0.0276
 3790SOL    HW111189   0.262   3.015   2.533 -0.5276 -0.8972 -1.6824
 3790SOL    HW211190   0.291   2.878   2.617  0.5890  0.5696  0.4182
 3791SOL     OW11191   3.875   3.389   3.741  0.5190 -0.1630 -0.0816
 3791SOL    HW111192   3.834   3.393   3.650  1.8425 -0.6435 -0.7238
 3791SOL    HW211193   3.964   3.436   3.740 -0.1766  1.3021  1.3966
 3792SOL     OW11194   0.209   2.619   4.170 -0.5006 -0.0106 -0.1108
 3792SOL    HW111195   0.242   2.531   4.206 -3.6097 -1.1614  0.1854
 3792SOL    HW211196   0.206   2.616   4.070  0.3002  0.1436 -0.1465
 3793SOL     OW11197   4.636   3.177   2.527 -0.3065  0.1732  0.7907
 3793SOL    HW111198   4.581   3.104   2.488 -0.7766  0.2321  1.3262
 3793SOL    HW211199   4.576   3.250   2.561 -0.0219 -0.5105  2.9178
 3794SOL     OW11200   4.909   4.504   4.055  0.7834  0.1597 -0.2312
 3794SOL    HW111201   4.891   4.405   4.059  1.1327 -0.0655 -2.5883
 3794SOL    HW211202   4.828   4.551   4.020  1.2791  0.4249 -1.0491
 3795SOL     OW11203   3.015   3.356   3.430 -0.3977  0.3318 -0.0995
 3795SOL    HW111204   2.961   3.409   3.496 -0.6608 -1.6661  1.3976
 3795SOL    HW211205   2.967   3.270   3.410  1.4490 -0.7811  0.0305
 3796SOL     OW11206   0.193   2.340   3.918  0.3136 -0.0609  0.3365
 3796SOL    HW111207   0.229   2.262   3.968 -2.7005 -1.4084  0.5858
 3796SOL    HW211208   0.120   2.384   3.971 -0.9972  0.2347 -1.5988
 3797SOL     OW11209   3.206   4.299   2.461  0.1717  0.1921  0.4832
 3797SOL    HW111210   3.153   4.238   2.402  1.1236 -1.3995  1.2352
 3797SOL    HW211211   3.182   4.394   2.440 -1.2274 -0.4112 -0.8159
 3798SOL     OW11212   4.632   4.500   3.524 -0.4959 -0.5352 -0.5438
 3798SOL    HW111213   4.694   4.437   3.569 -0.1711 -0.4078 -0.8080
 3798SOL    HW211214   4.559   4.526   3.587 -0.2384 -0.6249 -0.2080
 3799SOL     OW11215   3.756   3.228   1.155 -0.2841  0.3082  0.3387
 3799SOL    HW111216   3.660   3.213   1.177 -0.1392 -0.2593  0.6023
 3799SOL    HW211217   3.791   3.304   1.210 -0.9296  1.4073 -0.7404
 3800SOL     OW11218   3.960   2.764   2.713 -0.2507  0.1591  0.2755
 3800SOL    HW111219   4.006   2.808   2.789 -0.4025  3.2909 -1.2823
 3800SOL    HW211220   3.873   2.811   2.695  0.3222  0.3347 -2.4926
 3801SOL     OW11221   3.646   4.509   4.353 -0.4395  0.2611 -0.1027
 3801SOL    HW111222   3.708   4.445   4.399 -0.3709 -0.3456 -1.0111
 3801SOL    HW211223   3.612   4.467   4.269 -2.2722  0.4947  0.4895
 3802SOL     OW11224   0.031   2.756   2.965 -0.7901  0.3631 -0.4573
 3802SOL    HW111225   0.029   2.667   3.010  1.6821  0.0710 -0.7421
 3802SOL    HW211226  -0.062   2.788   2.950 -1.7347 -0.8575  2.1659
 3803SOL     OW11227   3.614   2.757   1.332 -0.0109  0.1848  0.0776
 3803SOL    HW111228   3.691   2.821   1.327  0.2988 -0.2259 -0.7042
 3803SOL    HW211229   3.528   2.807   1.338  0.2978  0.6551  0.6316
 3804SOL     OW11230   3.277   2.853   3.889  0.2610  0.3592 -0.4556
 3804SOL    HW111231   3.207   2.787   3.914  1.3273 -0.6386 -0.0332
 3804SOL    HW211232   3.233   2.936   3.854 -1.1033 -0.7173 -1.4276
 3805SOL     OW11233   3.411   3.197   2.887  0.4950 -0.2908  0.1431
 3805SOL    HW111234   3.374   3.229   2.800  0.6865  0.2301  0.2508
 3805SOL    HW211235   3.357   3.119   2.919  0.0161 -0.0731 -0.1191
 3806SOL     OW11236   1.325   3.751   4.629  0.5236 -0.0040  0.2013
 3806SOL    HW111237   1.393   3.681   4.650  0.5467  0.2134  0.8600
 3806SOL    HW211238   1.235   3.708   4.621  0.8025 -0.3756 -1.2120
 3807SOL     OW11239   3.803   2.785   2.959  0.2696 -0.0798 -0.2755
 3807SOL    HW111240   3.727   2.760   2.899 -0.7167 -1.3015  1.3812
 3807SOL    HW211241   3.857   2.703   2.979  0.5769  0.2942  0.4768
 3808SOL     OW11242   4.209   2.929   3.020  0.0293  0.0579  0.2609
 3808SOL    HW111243   4.305   2.954   3.032  0.4082 -1.2504  0.1931
 3808SOL    HW211244   4.179   2.874   3.098 -0.3736 -0.3630 -0.1829
 3809SOL     OW11245   4.759   4.721   3.399 -0.4399  0.2737 -0.1634
 3809SOL    HW111246   4.797   4.659   3.331 -1.5501  0.8879 -1.3850
 3809SOL    HW211247   4.709   4.669   3.468  1.5170 -0.4392  0.7886
 3810SOL     OW11248   4.684   3.629   3.665 -0.1838 -0.1880 -0.8737
 3810SOL    HW111249   4.715   3.536   3.644 -0.0540 -0.3827  0.1685
 3810SOL    HW211250   4.693   3.647   3.763 -3.2277 -0.2277 -0.4888
 3811SOL     OW11251   3.560   3.361   1.940 -0.8948  0.0406 -0.0551
 3811SOL    HW111252   3.623   3.309   1.997  0.9509  0.4213 -1.6409
 3811SOL    HW211253   3.576   3.459   1.955 -1.2309  0.1382 -0.3288
 3812SOL     OW11254   4.051   1.866   3.285  0.0270  0.5395 -0.0463
 3812SOL    HW111255   4.080   1.951   3.330 -0.1820  0.0224  1.1052
 3812SOL    HW211256   3.977   1.886   3.221  0.0626  1.2432  0.1203
 3813SOL     OW11257   4.705   2.642   2.710  0.6486  0.3057 -0.1377
 3813SOL    HW111258   4.638   2.682   2.771  0.8984 -0.8563  0.9404
 3813SOL    HW211259   4.782   2.705   2.697  1.0927  0.1567  1.6009
 3814SOL     OW11260   4.851   4.233   4.070  0.3470 -0.6022 -0.6588
 3814SOL    HW111261   4.881   4.161   4.132 -0.3112 -0.5537 -0.2668
 3814SOL    HW211262   4.770   4.277   4.108 -0.4928 -1.0341 -1.8774
 3815SOL     OW11263   5.069   3.687   2.308 -0.4372  0.1756  0.0961
 3815SOL    HW111264   5.119   3.724   2.387  0.2149  0.3243 -0.3740
 3815SOL    HW211265   5.063   3.588   2.315 -0.6468  0.2145  0.4826
 3816SOL     OW11266   4.608   3.609   3.240 -0.1975  0.3233  0.1995
 3816SOL    HW111267   4.552   3.647   3.166  0.4940  1.5332  0.2643
 3816SOL    HW211268   4.637   3.683   3.300  1.4944 -0.2503  0.1446
 3817SOL     OW11269   4.237   4.139   3.650  0.1551  0.5882 -0.3802
 3817SOL    HW111270   4.317   4.153   3.709 -0.4269  1.6948  0.1779
 3817SOL    HW211271   4.182   4.064   3.685  0.2179  0.7413  0.0479
 3818SOL     OW11272   3.272   2.944   2.011 -0.3040 -0.5009 -0.3984
 3818SOL    HW111273   3.328   2.984   1.939  0.2997  0.4115  0.5375
 3818SOL    HW211274   3.307   2.974   2.100 -0.2842 -2.5592  0.3414
 3819SOL     OW11275   0.442   2.758   4.130  0.4188  0.2821 -0.2168
 3819SOL    HW111276   0.364   2.707   4.165  0.6567  0.0518 -0.0121
 3819SOL    HW211277   0.426   2.784   4.034  1.0013 -1.6764 -0.8922
 3820SOL     OW11278   0.823   3.941   1.938  0.5734 -0.3663 -0.0475
 3820SOL    HW111279   0.756   3.870   1.915  0.3502 -0.0209 -0.4877
 3820SOL    HW211280   0.822   4.011   1.867  0.0086  0.6328  0.9152
 3821SOL     OW11281   4.043   3.476   2.407  0.0825 -0.1760  0.2171
 3821SOL    HW111282   3.995   3.400   2.452  2.0766  0.4572  3.7569
 3821SOL    HW211283   4.127   3.442   2.366  0.7300 -0.0249  1.3753
 3822SOL     OW11284   4.533   3.427   4.923 -0.5058  0.5544 -0.3612
 3822SOL    HW111285   4.449   3.479   4.941 -0.6338  0.0992  0.4140
 3822SOL    HW211286   4.510   3.336   4.889 -0.3134  0.6228 -0.6728
 3823SOL     OW11287   2.765   3.305   2.018  0.0841 -0.6946 -0.0533
 3823SOL    HW111288   2.782   3.273   1.924 -1.0072 -2.0469  0.1748
 3823SOL    HW211289   2.709   3.387   2.015  0.2117 -0.6192 -0.5852
 3824SOL     OW11290   4.093   4.286   3.466  0.0961 -0.2986 -0.5660
 3824SOL    HW111291   4.150   4.247   3.539 -1.1821  0.3877  0.8638
 3824SOL    HW211292   4.093   4.225   3.387  0.7303 -1.5685  0.3818
 3825SOL     OW11293   3.836   3.010   2.421  0.3577 -0.7675  0.7325
 3825SOL    HW111294   3.803   2.975   2.508 -1.8226  1.3284  0.8584
 3825SOL    HW211295   3.764   3.004   2.352  0.7689  0.9241  0.0845
 3826SOL     OW11296   4.703   3.621   2.622 -0.0310  0.1871  0.0426
 3826SOL    HW111297   4.777   3.561   2.651 -0.7559 -0.7221  0.0298
 3826SOL    HW211298   4.697   3.699   2.684  0.9252  0.2645  0.0468
 3827SOL     OW11299   4.012   3.569   1.473  0.3220  0.3586 -0.3309
 3827SOL    HW111300   4.084   3.638   1.462 -0.4749  1.1813 -0.5363
 3827SOL    HW211301   3.965   3.555   1.386 -1.3196  1.6089  0.2931
 3828SOL     OW11302   3.862   4.252   3.089 -0.1387 -0.4880  0.2839
 3828SOL    HW111303   3.908   4.180   3.140  0.2539 -0.6513 -0.2943
 3828SOL    HW211304   3.900   4.341   3.115  0.2598 -0.5941  0.0689
 3829SOL     OW11305   0.005   3.601   2.874 -0.1398 -0.1147 -0.4457
 3829SOL    HW111306  -0.016   3.697   2.895 -0.8571 -0.5786  1.1004
 3829SOL    HW211307   0.103   3.584   2.889 -0.3769 -0.0946  1.4084
 3830SOL     OW11308   3.750   3.374   3.485 -0.0842 -0.0391 -0.1874
 3830SOL    HW111309   3.824   3.430   3.450  0.2731 -0.0822  0.4920
 3830SOL    HW211310   3.714   3.316   3.412 -1.4582  2.0948 -1.3211
 3831SOL     OW11311   4.966   1.653   1.775  0.1419 -0.0517  0.4622
 3831SOL    HW111312   5.049   1.708   1.773  0.1037 -0.0098 -0.0383
 3831SOL    HW211313   4.886   1.714   1.775  0.0810 -0.1065 -1.1958
 3832SOL     OW11314   0.935   2.271   3.063 -0.2071  0.6494 -0.6163
 3832SOL    HW111315   0.895   2.185   3.032  1.2303 -0.8169  1.3009
 3832SOL    HW211316   0.863   2.328   3.104 -1.1274  0.2691 -1.6504
 3833SOL     OW11317   3.286   4.210   3.139  0.3624  0.8198 -0.0039
 3833SOL    HW111318   3.380   4.190   3.167  0.8919  2.0499 -0.7839
 3833SOL    HW211319   3.238   4.255   3.213  0.5753  0.6972  0.2097
 3834SOL     OW11320   5.009   2.008   1.646 -0.3943 -0.3219  0.0755
 3834SOL    HW111321   5.078   1.995   1.575  0.4689 -0.0018  0.8429
 3834SOL    HW211322   5.053   2.024   1.734 -1.3786  2.1761  0.2008
 3835SOL     OW11323   3.709   3.697   3.660  0.1159  0.5768  0.1482
 3835SOL    HW111324   3.678   3.688   3.565  1.7311 -0.3433 -0.3306
 3835SOL    HW211325   3.634   3.673   3.721 -1.0107  1.3533 -0.8703
 3836SOL     OW11326   4.365   2.867   2.637  0.1586  0.2686 -0.0770
 3836SOL    HW111327   4.433   2.816   2.689  1.1507  1.8311  0.2210
 3836SOL    HW211328   4.300   2.909   2.701 -0.6609 -0.5988 -0.3201
 3837SOL     OW11329   3.691   1.804   2.548  0.1112  0.5287 -0.5501
 3837SOL    HW111330   3.736   1.794   2.459 -0.1795 -1.5104 -0.5272
 3837SOL    HW211331   3.692   1.716   2.596 -1.6714  1.0292  0.5132
 3838SOL     OW11332   4.274   1.675   3.473 -0.2643 -0.5834 -0.4788
 3838SOL    HW111333   4.371   1.681   3.494 -0.0353  1.6406 -1.9552
 3838SOL    HW211334   4.259   1.605   3.403  0.1206 -1.5442  0.3727
 3839SOL     OW11335   3.720   3.568   3.912  0.0028 -0.1230 -0.2829
 3839SOL    HW111336   3.770   3.533   3.832 -1.9276  1.1526 -2.1563
 3839SOL    HW211337   3.769   3.647   3.949 -0.0010  0.4327 -1.3987
 3840SOL     OW11338   0.164   3.807   3.796  0.0997  0.8371  0.6676
 3840SOL    HW111339   0.104   3.868   3.848 -1.2241  0.1162  0.0286
 3840SOL    HW211340   0.110   3.733   3.755  1.7441 -1.2667  2.0780
 3841SOL     OW11341   5.020   4.240   2.515  0.2129  0.0193 -1.0354
 3841SOL    HW111342   4.944   4.265   2.456  1.0745  0.2973 -2.0403
 3841SOL    HW211343   5.092   4.309   2.509 -0.3429  0.9853  1.6437
 3842SOL     OW11344   4.027   3.948   3.710 -0.2927  0.2519  0.6167
 3842SOL    HW111345   3.983   3.982   3.792 -0.5741 -0.1458  0.6351
 3842SOL    HW211346   3.972   3.971   3.629 -0.3141  0.1380  0.5980
 3843SOL     OW11347   4.721   2.494   1.383 -0.0416  0.4959 -0.5864
 3843SOL    HW111348   4.754   2.588   1.384  1.3170  0.0884 -2.0995
 3843SOL    HW211349   4.781   2.438   1.440  0.9095  0.0761 -1.9351
 3844SOL     OW11350   4.483   3.552   4.345 -0.1927 -0.1113  0.3284
 3844SOL    HW111351   4.426   3.629   4.316 -0.5452 -0.5621 -0.1882
 3844SOL    HW211352   4.437   3.501   4.417 -0.0992 -0.0319  0.4463
 3845SOL     OW11353   4.281   3.787   4.227  0.2630  0.1467 -0.0993
 3845SOL    HW111354   4.232   3.787   4.314  0.2234 -0.0143 -0.1215
 3845SOL    HW211355   4.267   3.699   4.181  1.1313 -0.1609  0.2107
 3846SOL     OW11356   0.233   3.015   1.624 -0.4742  0.2129  0.0942
 3846SOL    HW111357   0.198   2.926   1.595 -1.6860  0.8550 -0.4954
 3846SOL    HW211358   0.242   3.075   1.544 -0.8558  1.0066  0.6308
 3847SOL     OW11359   4.098   2.759   3.481 -0.1468 -0.2695 -0.7977
 3847SOL    HW111360   4.022   2.701   3.508  0.4900 -0.3167  1.0538
 3847SOL    HW211361   4.183   2.706   3.485  0.3160  0.5049 -0.0787
 3848SOL     OW11362   3.579   3.353   3.048  0.4206 -0.0866  0.2727
 3848SOL    HW111363   3.562   3.450   3.031 -0.0858 -0.1128  0.5951
 3848SOL    HW211364   3.510   3.299   3.000 -0.1165 -0.2238  1.1662
 3849SOL     OW11365   0.609   3.619   2.284  0.1240 -0.4723 -0.0142
 3849SOL    HW111366   0.518   3.658   2.288 -0.1373 -0.9888 -0.6708
 3849SOL    HW211367   0.604   3.524   2.251  0.9377 -0.3067 -0.6666
 3850SOL     OW11368   3.992   3.301   1.914 -0.3191  0.4407  0.5584
 3850SOL    HW111369   4.043   3.303   2.000 -0.7237  1.9704  0.7957
 3850SOL    HW211370   3.958   3.208   1.898 -1.1092  0.3215  2.5812
 3851SOL     OW11371   0.196   4.753   2.500  0.7836 -0.0429  0.1030
 3851SOL    HW111372   0.289   4.728   2.526  1.5351  0.0122 -2.3006
 3851SOL    HW211373   0.197   4.794   2.409 -1.7482 -1.2003 -0.5308
 3852SOL     OW11374   4.529   3.430   2.526 -0.0915  0.4453 -0.4950
 3852SOL    HW111375   4.459   3.454   2.593 -0.5635  1.7392 -1.4029
 3852SOL    HW211376   4.615   3.476   2.548  0.3590 -0.7408  0.3325
 3853SOL     OW11377   0.037   2.370   2.523  0.0014  0.4938 -0.1425
 3853SOL    HW111378   0.065   2.466   2.517  0.9733  0.2609  0.5125
 3853SOL    HW211379   0.017   2.346   2.618  0.7393 -0.2123 -0.1527
 3854SOL     OW11380   4.573   3.074   4.338  0.2721  0.3955 -0.0058
 3854SOL    HW111381   4.563   3.016   4.257 -0.5246 -0.6377  0.8146
 3854SOL    HW211382   4.642   3.145   4.320 -0.7003  0.9092 -1.9963
 3855SOL     OW11383   4.406   2.679   1.369 -0.3203 -0.5779 -0.2276
 3855SOL    HW111384   4.447   2.693   1.279  0.5112 -0.2861  0.1883
 3855SOL    HW211385   4.389   2.581   1.383 -0.3976 -0.6315 -0.6764
 3856SOL     OW11386   4.547   3.266   2.979 -0.2306 -0.5821  0.1672
 3856SOL    HW111387   4.502   3.307   3.059 -1.1665 -0.3056 -0.4878
 3856SOL    HW211388   4.490   3.279   2.898  1.6073  0.9152 -0.9797
 3857SOL     OW11389   3.817   2.407   4.123 -0.1232  0.5579  0.3820
 3857SOL    HW111390   3.833   2.505   4.132  1.9501  0.4850 -1.6128
 3857SOL    HW211391   3.897   2.357   4.155 -0.1644 -0.3603 -0.8707
 3858SOL     OW11392   3.306   3.890   3.615  0.0493 -0.0355 -0.0584
 3858SOL    HW111393   3.217   3.934   3.599  0.1787  0.1114 -0.3861
 3858SOL    HW211394   3.352   3.876   3.527  0.3336 -0.1482  0.1094
 3859SOL     OW11395   4.418   3.616   1.696  0.4538  0.4680  0.7634
 3859SOL    HW111396   4.477   3.648   1.621  0.4492  1.9347  1.3721
 3859SOL    HW211397   4.348   3.684   1.715 -0.8957 -0.8472  0.6833
 3860SOL     OW11398   3.951   2.656   1.677 -0.1706  0.3397 -0.2934
 3860SOL    HW111399   3.881   2.633   1.610 -0.8256  0.8899  0.1989
 3860SOL    HW211400   4.009   2.576   1.694  0.0400  0.2066 -1.5462
 3861SOL     OW11401   3.713   3.202   2.117 -0.1464  0.2576  0.2513
 3861SOL    HW111402   3.680   3.123   2.169  0.5987 -0.4697 -0.3398
 3861SOL    HW211403   3.798   3.177   2.070 -0.8430  0.8567 -1.3927
 3862SOL     OW11404   4.334   3.499   2.713 -0.0549  0.0452  0.3190
 3862SOL    HW111405   4.266   3.559   2.672 -0.1618 -0.7013 -0.6436
 3862SOL    HW211406   4.354   3.529   2.806 -0.1413  1.5250 -0.1151
 3863SOL     OW11407   0.074   3.694   3.289  0.2089 -1.0583 -0.1424
 3863SOL    HW111408  -0.007   3.642   3.262 -0.8556 -0.3545  1.5534
 3863SOL    HW211409   0.108   3.660   3.377 -0.0599  0.5699  0.6300
 3864SOL     OW11410   3.762   3.159   3.864  0.1206 -0.5881  0.8318
 3864SOL    HW111411   3.811   3.230   3.814  0.6032  0.4350  2.6523
 3864SOL    HW211412   3.675   3.140   3.818  0.5988  0.1838 -0.4411
 3865SOL     OW11413   3.811   3.449   4.689  0.5397 -0.3351 -0.6696
 3865SOL    HW111414   3.871   3.524   4.662  0.9514  0.2097  1.5400
 3865SOL    HW211415   3.843   3.364   4.649  0.7152  0.4664 -2.3256
 3866SOL     OW11416   4.215   2.501   3.004  0.3815 -0.1063 -0.2077
 3866SOL    HW111417   4.205   2.570   3.075  1.9957  2.1927 -2.0759
 3866SOL    HW211418   4.309   2.468   3.002  0.4502  0.1176 -1.4611
 3867SOL     OW11419   4.138   2.986   2.089  0.8918  0.1201  0.0933
 3867SOL    HW111420   4.164   2.932   2.009 -0.7451  1.9551 -1.7919
 3867SOL    HW211421   4.072   2.935   2.144 -0.7365  0.1651 -1.7308
 3868SOL     OW11422   0.007   1.753   2.450 -0.3208  0.1940 -0.1567
 3868SOL    HW111423  -0.017   1.731   2.544 -1.1683 -0.1762 -0.4472
 3868SOL    HW211424   0.004   1.852   2.437 -1.3752  0.1843 -0.0856
 3869SOL     OW11425   3.467   1.777   3.380 -0.2163  0.5071 -0.6492
 3869SOL    HW111426   3.428   1.702   3.326  1.0650 -0.2481 -0.5659
 3869SOL    HW211427   3.529   1.740   3.450  0.0055  1.6125 -0.2324
 3870SOL     OW11428   3.779   3.960   3.593  0.2451  0.5131  0.1303
 3870SOL    HW111429   3.770   3.863   3.613  0.2534  0.4889  0.0174
 3870SOL    HW211430   3.693   4.007   3.615 -0.1980  0.2724 -0.9969
 3871SOL     OW11431   0.127   3.779   2.544  0.0901 -0.3151  0.8167
 3871SOL    HW111432   0.109   3.682   2.527 -2.4442 -0.1125  1.8805
 3871SOL    HW211433   0.117   3.798   2.642 -0.6660  1.2196  0.4702
 3872SOL     OW11434   3.569   2.361   3.971  0.1077 -0.5661  0.0385
 3872SOL    HW111435   3.481   2.408   3.972 -0.1784 -0.9660 -1.8283
 3872SOL    HW211436   3.628   2.398   4.043 -0.9646  0.9376  0.1874
 3873SOL     OW11437   4.937   2.414   3.044  0.1101  0.1111 -0.0795
 3873SOL    HW111438   4.938   2.332   3.101 -1.1008  0.7691  0.9263
 3873SOL    HW211439   4.860   2.409   2.980  1.8846 -0.9704 -2.2560
 3874SOL     OW11440   4.571   2.136   1.639  0.2755 -0.6787  0.0642
 3874SOL    HW111441   4.546   2.228   1.609  1.0888  0.1928  1.9191
 3874SOL    HW211442   4.541   2.070   1.570  0.1041  0.9920 -1.5544
 3875SOL     OW11443   4.539   3.538   3.977  0.4707  0.4070  0.5887
 3875SOL    HW111444   4.553   3.452   3.927  0.3095  0.6835  0.0648
 3875SOL    HW211445   4.441   3.551   3.992  0.5474  0.0086  1.5508
 3876SOL     OW11446   4.669   2.985   4.578  0.1485 -0.0986  0.0527
 3876SOL    HW111447   4.635   3.025   4.493 -0.8753  1.3908  1.1185
 3876SOL    HW211448   4.748   3.036   4.610 -0.2291  0.1410  0.6250
 3877SOL     OW11449   0.506   2.385   2.385 -0.0975  0.3476 -0.5329
 3877SOL    HW111450   0.548   2.356   2.299 -0.1005  0.8411 -0.7032
 3877SOL    HW211451   0.551   2.468   2.418  1.8035 -1.3531  1.4095
 3878SOL     OW11452   0.673   3.250   1.446 -0.4610  0.6028  0.6650
 3878SOL    HW111453   0.613   3.273   1.522 -1.8063 -1.1158  0.1725
 3878SOL    HW211454   0.644   3.163   1.405  0.2042  1.4759 -1.8272
 3879SOL     OW11455   4.887   4.454   2.728  1.0014  0.2179  0.3863
 3879SOL    HW111456   4.951   4.523   2.693  1.0521  0.7099  1.4196
 3879SOL    HW211457   4.796   4.494   2.736  0.9171  0.0066  0.4863
 3880SOL     OW11458   3.053   2.933   2.906  0.3017 -0.0939 -0.7545
 3880SOL    HW111459   3.009   2.992   2.838  0.4700 -1.4671 -2.1146
 3880SOL    HW211460   3.144   2.970   2.928  0.2192  0.4100 -1.2188
 3881SOL     OW11461   4.385   3.090   3.741 -0.2872 -0.2608  0.2016
 3881SOL    HW111462   4.375   3.128   3.649  0.6254 -2.5704 -0.9170
 3881SOL    HW211463   4.338   3.149   3.806  0.9866  2.7264 -1.3803
 3882SOL     OW11464   4.125   2.334   3.335  0.1453  0.5636 -0.3514
 3882SOL    HW111465   4.089   2.262   3.394  1.1437  0.2204 -0.1295
 3882SOL    HW211466   4.215   2.362   3.368  2.3437 -1.9830 -3.5301
 3883SOL     OW11467   2.848   2.941   1.804 -0.3753  0.6653 -0.2129
 3883SOL    HW111468   2.816   2.922   1.897 -0.8312 -0.1344 -0.5247
 3883SOL    HW211469   2.862   3.039   1.794  0.2521  0.7013  0.8775
 3884SOL     OW11470   3.509   3.940   1.563  0.1042 -0.0928  0.2900
 3884SOL    HW111471   3.415   3.914   1.586  0.4217 -1.4891  0.0989
 3884SOL    HW211472   3.537   3.896   1.477  0.2983  1.8587 -0.6961
 3885SOL     OW11473   4.303   4.255   2.609  0.4333  0.1244  0.0946
 3885SOL    HW111474   4.256   4.206   2.536  0.4089  0.0043  0.1924
 3885SOL    HW211475   4.391   4.211   2.628  0.4749  0.2020  0.0841
 3886SOL     OW11476   4.773   2.377   2.831  0.0062  0.5873  0.4712
 3886SOL    HW111477   4.753   2.472   2.806 -0.2078  0.6331  0.8207
 3886SOL    HW211478   4.720   2.315   2.773  2.8592  0.5502 -2.3990
 3887SOL     OW11479   3.324   3.104   4.416 -0.0100  0.2439  0.4631
 3887SOL    HW111480   3.366   3.020   4.381  2.3567  0.9774  1.3057
 3887SOL    HW211481   3.291   3.089   4.509  1.4196  0.4885  1.0342
 3888SOL     OW11482   3.310   2.934   0.316 -0.3231 -0.1723 -0.8860
 3888SOL    HW111483   3.218   2.899   0.297 -0.1008 -0.1372 -2.1305
 3888SOL    HW211484   3.316   2.963   0.411 -1.4826 -0.5354 -0.6895
 3889SOL     OW11485   4.442   2.782   3.361  0.1481  0.0355  0.6487
 3889SOL    HW111486   4.468   2.876   3.337 -0.1433  0.4162  1.7566
 3889SOL    HW211487   4.448   2.770   3.460 -1.6301 -0.5452  0.7264
 3890SOL     OW11488   4.703   3.495   4.221 -0.4250  0.4172  0.4412
 3890SOL    HW111489   4.637   3.527   4.290 -0.9068  1.5184 -0.4911
 3890SOL    HW211490   4.658   3.491   4.132  0.8723  1.5741 -0.2946
 3891SOL     OW11491   4.770   2.842   3.181  0.0527 -0.1584 -0.2902
 3891SOL    HW111492   4.762   2.925   3.236 -1.5643 -0.3740 -0.1677
 3891SOL    HW211493   4.788   2.867   3.086 -0.8945  0.3545 -0.3400
 3892SOL     OW11494   5.013   2.902   3.435 -0.1310  0.2424  0.0010
 3892SOL    HW111495   5.099   2.933   3.395 -0.0020 -1.2744 -0.9796
 3892SOL    HW211496   4.993   2.809   3.404 -1.5857  0.1535  1.0774
 3893SOL     OW11497   4.156   2.739   2.525 -0.5537 -0.7009 -0.4344
 3893SOL    HW111498   4.236   2.791   2.553 -0.9930  0.4199 -1.2195
 3893SOL    HW211499   4.086   2.744   2.597 -0.6433 -0.0842 -0.5576
 3894SOL     OW11500   3.988   3.684   3.720  0.7024  0.1342 -0.3054
 3894SOL    HW111501   3.889   3.675   3.710  0.6301 -0.4043  0.7448
 3894SOL    HW211502   4.014   3.779   3.704 -0.1925  0.5946  0.7969
 3895SOL     OW11503   3.385   4.284   3.706 -0.1212  0.3910  0.9351
 3895SOL    HW111504   3.391   4.372   3.752  1.7042  0.2646  1.0148
 3895SOL    HW211505   3.289   4.265   3.682 -0.7250  1.7425  2.1281
 3896SOL     OW11506   1.287   4.091   3.211 -0.8865 -0.1372  0.0448
 3896SOL    HW111507   1.352   4.111   3.139 -1.1210 -0.0845 -0.1535
 3896SOL    HW211508   1.335   4.053   3.290 -0.9022 -2.7057 -1.0736
 3897SOL     OW11509   2.924   3.908   2.238 -0.0152 -0.1296  0.1752
 3897SOL    HW111510   2.954   3.816   2.264 -0.4817 -0.7871 -1.5331
 3897SOL    HW211511   2.827   3.906   2.214  0.2609  0.5564 -1.0412
 3898SOL     OW11512   3.524   3.735   3.156 -0.3860 -0.2748  0.0470
 3898SOL    HW111513   3.426   3.741   3.138 -0.3692  1.3300  0.3887
 3898SOL    HW211514   3.569   3.692   3.078 -1.3683 -1.1618 -0.0547
 3899SOL     OW11515   4.506   2.873   0.658  0.0970  0.4174  0.1130
 3899SOL    HW111516   4.601   2.867   0.689  0.0673  0.9520  0.3182
 3899SOL    HW211517   4.449   2.816   0.717  0.1877  0.6492  0.4280
 3900SOL     OW11518   4.661   4.501   3.901 -0.0835  0.3833 -0.3169
 3900SOL    HW111519   4.669   4.426   3.835 -0.8696 -0.9002  0.9807
 3900SOL    HW211520   4.578   4.553   3.883 -0.0791  0.2959 -0.5962
 3901SOL     OW11521   0.458   3.908   2.079  0.3208 -0.4187 -0.2041
 3901SOL    HW111522   0.413   3.993   2.052  0.0735 -0.0186  1.3824
 3901SOL    HW211523   0.407   3.864   2.152 -0.7422 -3.0981 -2.3999
 3902SOL     OW11524   3.526   3.735   4.013  0.1538  0.0147 -0.0494
 3902SOL    HW111525   3.582   3.659   3.980  1.3321  0.3924  1.0090
 3902SOL    HW211526   3.534   3.742   4.112 -1.0218  0.6920  0.0164
 3903SOL     OW11527   3.830   2.340   1.373 -0.2709  0.7167  0.0296
 3903SOL    HW111528   3.875   2.395   1.302 -0.6765  1.9560  0.6959
 3903SOL    HW211529   3.827   2.245   1.345  2.1744  0.6754 -0.3647
 3904SOL     OW11530   4.888   3.634   3.193 -0.1765 -0.3470 -0.1186
 3904SOL    HW111531   4.795   3.625   3.230 -1.2897 -0.9292 -2.7727
 3904SOL    HW211532   4.901   3.727   3.159  0.0278 -0.3839 -0.1384
 3905SOL     OW11533   4.382   3.609   2.974 -0.4256  0.5562  0.0500
 3905SOL    HW111534   4.359   3.689   3.028  0.0106  0.1232  0.8914
 3905SOL    HW211535   4.384   3.528   3.033  0.5514  0.1518 -0.5068
 3906SOL     OW11536   4.804   2.023   2.561  0.1882  0.0537  0.0813
 3906SOL    HW111537   4.781   1.961   2.486  1.8460 -0.6751  0.1351
 3906SOL    HW211538   4.853   2.103   2.524  1.3061 -0.4679  0.3966
 3907SOL     OW11539   3.703   2.394   3.715  0.4387 -0.2374 -0.4535
 3907SOL    HW111540   3.660   2.386   3.804  1.0826  0.5274 -0.0585
 3907SOL    HW211541   3.800   2.370   3.722  0.7941  1.0618 -0.6560
 3908SOL     OW11542   0.296   2.706   2.119 -0.2661 -0.0891 -0.1570
 3908SOL    HW111543   0.360   2.658   2.058 -1.8362  0.5934 -2.4532
 3908SOL    HW211544   0.225   2.642   2.148 -0.4550 -0.0046 -0.4296
 3909SOL     OW11545   4.584   2.518   3.955 -0.0540 -0.5068 -0.0893
 3909SOL    HW111546   4.556   2.479   3.867 -0.4478  0.4073 -0.3829
 3909SOL    HW211547   4.506   2.563   3.998  0.0415 -1.3036  0.9294
 3910SOL     OW11548   4.031   2.832   2.293  1.2665  0.1674 -0.1778
 3910SOL    HW111549   4.083   2.801   2.372  0.2861 -0.4842  0.2349
 3910SOL    HW211550   3.942   2.865   2.322  0.8578 -0.1626 -1.0082
 3911SOL     OW11551   3.415   3.134   1.825 -1.0158 -0.5776 -0.0788
 3911SOL    HW111552   3.322   3.167   1.843 -1.0108 -0.2913 -0.5598
 3911SOL    HW211553   3.480   3.185   1.880 -0.8625  1.2336 -1.8242
 3912SOL     OW11554   3.409   2.478   3.612  1.1765  0.1190 -0.2767
 3912SOL    HW111555   3.473   2.403   3.625  1.2644  0.3234  0.4877
 3912SOL    HW211556   3.442   2.559   3.660 -0.8452 -0.4341  2.2800
 3913SOL     OW11557   3.911   2.684   4.104  0.2084  0.1820 -0.3763
 3913SOL    HW111558   3.966   2.649   4.180 -0.3747 -0.1663 -0.1141
 3913SOL    HW211559   3.962   2.757   4.058 -0.1991  1.7443  1.5248
 3914SOL     OW11560   4.358   3.206   3.484  0.2727  0.3370  0.2363
 3914SOL    HW111561   4.272   3.209   3.434 -1.4633 -0.1093  2.9585
 3914SOL    HW211562   4.398   3.297   3.488 -1.2074  0.9977  0.6884
 3915SOL     OW11563   0.613   3.374   2.198 -0.1626  0.1931 -0.2440
 3915SOL    HW111564   0.658   3.288   2.174 -0.7736 -0.6123  1.3219
 3915SOL    HW211565   0.526   3.380   2.149  0.3669  0.4310 -1.1648
 3916SOL     OW11566   4.633   2.193   2.710  0.2238  0.5262  0.2248
 3916SOL    HW111567   4.692   2.137   2.651  0.8516  1.7175 -0.3187
 3916SOL    HW211568   4.562   2.135   2.751  0.7729 -0.6323 -0.4060
 3917SOL     OW11569   0.074   2.326   4.724  0.3827 -0.1392 -0.0946
 3917SOL    HW111570   0.111   2.272   4.800 -0.4954  0.6938  0.9535
 3917SOL    HW211571   0.017   2.400   4.760 -1.4148 -0.7106 -1.6059
 3918SOL     OW11572   4.466   3.464   3.425  0.1601  0.0711  0.5158
 3918SOL    HW111573   4.432   3.530   3.492 -3.5543  0.3764 -1.3887
 3918SOL    HW211574   4.530   3.510   3.363  0.4283  0.8842  1.3673
 3919SOL     OW11575   3.642   2.667   4.206 -0.4995 -0.3446 -0.2707
 3919SOL    HW111576   3.730   2.691   4.165 -0.6422 -1.4132 -1.2448
 3919SOL    HW211577   3.569   2.677   4.139 -0.9409 -0.7183  0.1438
 3920SOL     OW11578   0.184   2.460   1.908  0.4967  0.1087  0.3090
 3920SOL    HW111579   0.172   2.543   1.854 -0.1256  1.8260  2.9008
 3920SOL    HW211580   0.193   2.381   1.847  1.6582  2.1051 -2.2619
 3921SOL     OW11581   4.528   2.774   2.913  0.2527  0.3584  0.2002
 3921SOL    HW111582   4.454   2.724   2.959  0.0420  0.1081 -0.3952
 3921SOL    HW211583   4.544   2.860   2.960 -0.6830  0.5956  0.1157
 3922SOL     OW11584   4.661   4.193   2.159 -0.2504  0.1383 -0.0614
 3922SOL    HW111585   4.690   4.110   2.111 -0.8328 -1.4356  2.1357
 3922SOL    HW211586   4.728   4.265   2.145  1.3918 -1.3708 -0.3580
 3923SOL     OW11587   0.286   4.585   1.648 -0.1223  0.2824 -0.0426
 3923SOL    HW111588   0.281   4.544   1.557  0.3882 -1.4442  0.6562
 3923SOL    HW211589   0.326   4.676   1.641 -0.5245  0.3740 -1.5865
 3924SOL     OW11590   4.049   1.894   1.905 -0.3363  0.2470  0.6899
 3924SOL    HW111591   3.993   1.965   1.861  1.3982  1.4046  0.2508
 3924SOL    HW211592   4.144   1.926   1.913 -0.1870 -0.5853  3.7559
 3925SOL     OW11593   5.018   2.722   1.997  0.8857  0.0348 -0.5103
 3925SOL    HW111594   5.112   2.688   1.989  0.6501 -0.4824 -1.2759
 3925SOL    HW211595   5.011   2.812   1.953  0.6768 -0.6623 -1.9820
 3926SOL     OW11596   3.628   3.938   4.607 -0.2523  0.5256  0.3913
 3926SOL    HW111597   3.670   3.854   4.644 -1.8056 -0.3446  0.2803
 3926SOL    HW211598   3.530   3.924   4.598 -0.5053  2.2994  0.1065
 3927SOL     OW11599   3.677   3.196   2.700 -0.2132  0.2732  0.0269
 3927SOL    HW111600   3.697   3.101   2.676 -1.6205 -0.1314  0.3833
 3927SOL    HW211601   3.698   3.210   2.797  0.3679  0.4408 -0.1203
 3928SOL     OW11602   4.001   0.006   4.127 -0.4829  0.4198  0.2021
 3928SOL    HW111603   3.940   0.050   4.062 -1.0034  0.1897  0.5311
 3928SOL    HW211604   3.984  -0.092   4.128  0.4935  0.2319 -0.3358
 3929SOL     OW11605   0.222   2.983   3.710  0.0125 -0.4124  0.0713
 3929SOL    HW111606   0.240   2.968   3.613 -2.8427  0.4988 -0.7000
 3929SOL    HW211607   0.245   3.077   3.735 -1.3675  0.0574 -0.3433
 3930SOL     OW11608   4.133   3.516   2.019  0.1604 -0.5598  0.5586
 3930SOL    HW111609   4.218   3.555   1.983 -0.8063 -0.0829 -1.3582
 3930SOL    HW211610   4.153   3.429   2.065  1.6428 -0.6557 -0.1980
 3931SOL     OW11611   0.049   3.364   3.964  0.6648  0.0203 -0.5623
 3931SOL    HW111612   0.013   3.428   4.032  0.7833  1.4978 -1.8283
 3931SOL    HW211613   0.144   3.342   3.986  0.5027 -0.0162  0.1043
 3932SOL     OW11614   4.132   3.930   0.879 -0.1873 -0.4614  0.0033
 3932SOL    HW111615   4.052   3.904   0.825 -0.2217  0.2726 -0.3201
 3932SOL    HW211616   4.210   3.945   0.818 -0.0055 -0.4412  0.2391
 3933SOL     OW11617   4.970   3.784   3.516  0.2895 -0.1049  0.7033
 3933SOL    HW111618   4.984   3.882   3.529  0.2575 -0.1013  0.7090
 3933SOL    HW211619   4.990   3.761   3.420 -1.9150  0.3024  0.0949
 3934SOL     OW11620   3.912   2.594   3.572  0.0608 -0.4342 -0.0415
 3934SOL    HW111621   3.936   2.511   3.623  0.2889 -0.3390  0.0093
 3934SOL    HW211622   3.823   2.628   3.603  0.7758  0.3587  1.2489
 3935SOL     OW11623   4.414   3.566   2.021 -0.1089  0.0234 -0.0675
 3935SOL    HW111624   4.470   3.508   2.081 -0.1963 -0.8511 -0.8033
 3935SOL    HW211625   4.455   3.657   2.016  1.1794 -0.5413 -0.4539
 3936SOL     OW11626   4.869   4.341   2.093 -0.7585 -0.0967  0.2512
 3936SOL    HW111627   4.862   4.364   1.996 -2.3699 -0.4582  0.2470
 3936SOL    HW211628   4.878   4.424   2.147 -0.2508  0.1282 -0.1660
 3937SOL     OW11629   2.766   2.367   4.662 -0.2809  0.3096 -0.3747
 3937SOL    HW111630   2.732   2.282   4.621 -0.8258  0.6684 -0.6899
 3937SOL    HW211631   2.743   2.444   4.601  1.3671  0.5389 -0.7530
 3938SOL     OW11632   2.840   2.776   0.421  0.1032 -0.6226 -0.1138
 3938SOL    HW111633   2.748   2.743   0.440 -1.1715  1.1861 -2.4731
 3938SOL    HW211634   2.892   2.704   0.376 -0.8857 -1.0438 -0.6270
 3939SOL     OW11635   3.228   1.747   0.737  0.2196  0.5011 -0.5584
 3939SOL    HW111636   3.264   1.825   0.787 -0.9743  1.0404 -0.5172
 3939SOL    HW211637   3.219   1.770   0.640  0.8207  0.0611 -0.7277
 3940SOL     OW11638   0.409   3.613   0.277  0.5735 -0.8139  0.7679
 3940SOL    HW111639   0.473   3.688   0.265 -2.0858  1.4747 -0.2946
 3940SOL    HW211640   0.418   3.548   0.202 -0.4700  1.2417 -1.2562
 3941SOL     OW11641   0.409   3.771   3.686 -0.2226  0.1912 -0.1401
 3941SOL    HW111642   0.406   3.743   3.590  0.2105 -1.7659  0.3645
 3941SOL    HW211643   0.317   3.773   3.723 -0.3098 -0.0751 -0.3388
 3942SOL     OW11644   3.894   3.228   4.585  0.1278 -0.0868 -0.3678
 3942SOL    HW111645   3.831   3.186   4.520  1.2948 -0.0826 -1.5355
 3942SOL    HW211646   3.955   3.159   4.623  0.5383  0.1699 -0.5499
 3943SOL     OW11647   3.665   3.954   4.000 -0.4513 -0.2990 -0.7864
 3943SOL    HW111648   3.604   4.032   3.984 -0.8496 -0.3020  0.5596
 3943SOL    HW211649   3.611   3.870   4.005 -0.2557 -0.4014 -0.3285
 3944SOL     OW11650   3.694   3.735   4.783 -0.4298 -0.2017 -0.0558
 3944SOL    HW111651   3.700   3.635   4.781 -0.0103 -0.1644 -0.7436
 3944SOL    HW211652   3.599   3.762   4.799 -0.6782 -0.7034 -0.6614
 3945SOL     OW11653   4.133   4.246   4.116 -0.2858 -0.0255 -0.5655
 3945SOL    HW111654   4.198   4.317   4.143 -0.9402  0.6661 -0.7697
 3945SOL    HW211655   4.077   4.280   4.040 -0.6254 -0.7537 -0.6452
 3946SOL     OW11656   2.836   3.969   3.628 -0.5145 -0.7233  0.3252
 3946SOL    HW111657   2.779   3.959   3.546 -0.5926  3.3080 -0.3412
 3946SOL    HW211658   2.921   4.016   3.603 -0.0499 -0.3839  2.3959
 3947SOL     OW11659   3.296   4.486   4.405 -0.3216  0.1038  0.2981
 3947SOL    HW111660   3.337   4.395   4.407 -2.2933 -0.8950 -1.1676
 3947SOL    HW211661   3.359   4.552   4.445  1.6926 -1.6871  0.2367
 3948SOL     OW11662   4.422   3.934   4.628  0.2485  0.2904  0.2926
 3948SOL    HW111663   4.410   3.992   4.709 -0.1492  0.5597  0.0439
 3948SOL    HW211664   4.483   3.980   4.563 -0.6965  0.8072 -0.2546
 3949SOL     OW11665   3.744   2.124   4.197 -0.4946 -0.1135  0.1265
 3949SOL    HW111666   3.778   2.218   4.197  0.5173 -0.4447 -1.3375
 3949SOL    HW211667   3.698   2.105   4.110  1.0004 -1.5184 -0.4082
 3950SOL     OW11668   3.071   1.822   4.501 -0.0569  0.2024  0.1455
 3950SOL    HW111669   3.114   1.755   4.562  2.5270  0.1572 -1.5759
 3950SOL    HW211670   3.064   1.909   4.548 -0.7812 -0.5249  1.4454
 3951SOL     OW11671   3.257   3.746   4.414 -0.6010  0.6028  0.0885
 3951SOL    HW111672   3.226   3.735   4.508  0.5186 -2.0489  0.2247
 3951SOL    HW211673   3.229   3.667   4.360  2.7574 -0.2805 -0.6068
 3952SOL     OW11674   4.601   4.190   3.309  0.4070  0.5494  0.5293
 3952SOL    HW111675   4.581   4.278   3.267 -0.5449  0.6766  1.2135
 3952SOL    HW211676   4.681   4.149   3.265  0.9148  1.7877  0.2679
 3953SOL     OW11677   3.458   2.682   3.783  0.1710 -0.3519  0.3177
 3953SOL    HW111678   3.529   2.733   3.734  0.4455  0.4964  1.5582
 3953SOL    HW211679   3.387   2.746   3.814 -0.0698 -0.8986  0.9115
 3954SOL     OW11680   3.619   3.781   0.142 -0.0167 -0.5808  0.6730
 3954SOL    HW111681   3.710   3.808   0.175  0.2037  0.9793 -1.0187
 3954SOL    HW211682   3.619   3.683   0.121  1.8570 -0.3331 -0.8426
 3955SOL     OW11683   3.393   2.466   5.020 -0.2263 -0.7676 -0.5131
 3955SOL    HW111684   3.378   2.468   4.921 -1.0786 -1.7197 -0.4232
 3955SOL    HW211685   3.463   2.532   5.045 -3.1923  2.9986 -1.2038
 3956SOL     OW11686   1.471   2.450   0.403  0.2134  1.0009  0.8914
 3956SOL    HW111687   1.482   2.396   0.486 -0.3597  1.8701  1.5538
 3956SOL    HW211688   1.376   2.480   0.395 -0.0515 -0.1626 -0.7853
 3957SOL     OW11689   0.029   1.130   4.340 -0.4435 -0.5052  0.3384
 3957SOL    HW111690   0.025   1.212   4.284  1.3335 -0.1534  0.6673
 3957SOL    HW211691   0.107   1.074   4.311 -1.0500 -1.5967  0.7672
 3958SOL     OW11692   4.365   2.609   4.714 -0.0404 -0.0723 -0.0429
 3958SOL    HW111693   4.305   2.572   4.785  0.4561 -0.8802 -0.0269
 3958SOL    HW211694   4.395   2.535   4.654 -0.0067  0.5130 -0.7626
 3959SOL     OW11695   2.880   2.971   3.691  0.3058  0.1922  0.4559
 3959SOL    HW111696   2.961   2.924   3.725  1.6575  1.1197 -1.3297
 3959SOL    HW211697   2.842   3.029   3.764 -0.5118 -2.3721  2.2086
 3960SOL     OW11698   2.966   2.052   4.911  0.0772  0.1521  0.1696
 3960SOL    HW111699   3.017   2.136   4.930 -2.6380  1.5068  2.0905
 3960SOL    HW211700   3.005   1.978   4.965  0.1553  1.1042  1.4723
 3961SOL     OW11701   4.988   1.914   4.562 -0.0339  0.6885  0.1360
 3961SOL    HW111702   4.992   1.920   4.661 -1.1880  0.4735  0.2156
 3961SOL    HW211703   4.948   1.998   4.525  0.4449  0.7925 -0.1592
 3962SOL     OW11704   4.973   5.026   4.816 -0.0326 -0.0679  0.0183
 3962SOL    HW111705   5.021   4.966   4.880  0.7401 -1.2300 -1.5857
 3962SOL    HW211706   4.890   4.981   4.783  0.6308 -0.3658 -1.3128
 3963SOL     OW11707   4.774   3.445   5.038  0.0375 -0.2452  0.2145
 3963SOL    HW111708   4.754   3.501   5.118  0.3179 -0.0744  0.1669
 3963SOL    HW211709   4.690   3.430   4.986  0.2585  1.8537 -0.8856
 3964SOL     OW11710   2.580   2.931   0.084  0.2165 -0.1483  0.2690
 3964SOL    HW111711   2.664   2.982   0.104  0.1540  0.6408 -1.3298
 3964SOL    HW211712   2.566   2.862   0.154  1.7880  0.2214  0.9963
 3965SOL     OW11713   0.907   2.614   4.129 -0.0714  0.2125 -0.4554
 3965SOL    HW111714   0.995   2.653   4.153 -1.1824  1.5725  1.7123
 3965SOL    HW211715   0.839   2.687   4.120 -1.7204 -0.9899  1.4133
 3966SOL     OW11716   4.790   4.087   4.600  0.0160 -0.0797  0.3289
 3966SOL    HW111717   4.710   4.070   4.543 -0.9521  0.7841  1.4027
 3966SOL    HW211718   4.837   4.001   4.618 -0.6351 -0.5856 -0.3558
 3967SOL     OW11719   3.847   3.453   0.034 -0.5679 -0.7390 -0.2811
 3967SOL    HW111720   3.753   3.488   0.038 -1.3207 -2.5437 -0.9720
 3967SOL    HW211721   3.850   3.373  -0.026  0.6330 -3.0330  2.6371
 3968SOL     OW11722   4.731   2.758   5.048  0.4774 -0.2953 -0.1697
 3968SOL    HW111723   4.644   2.748   4.999 -0.1571 -0.7511  1.0118
 3968SOL    HW211724   4.806   2.756   4.982 -0.3523 -0.6639 -1.1426
 3969SOL     OW11725   3.894   2.533   0.101  0.0944 -0.0581  0.6378
 3969SOL    HW111726   3.864   2.628   0.105 -0.2847 -0.0544 -1.2451
 3969SOL    HW211727   3.911   2.499   0.194  0.9489  2.0460  1.3027
 3970SOL     OW11728   4.134   3.076   4.168  0.2996 -0.2266  0.1342
 3970SOL    HW111729   4.112   3.163   4.124  0.5666 -0.4252 -0.4017
 3970SOL    HW211730   4.063   3.053   4.234 -0.6035 -0.3951 -0.8816
 3971SOL     OW11731   0.237   3.377   4.263 -0.3621 -0.0797 -0.0666
 3971SOL    HW111732   0.140   3.400   4.264 -0.3059  0.1546  0.3231
 3971SOL    HW211733   0.248   3.279   4.249 -0.6247  0.0187 -1.0346
 3972SOL     OW11734   4.702   2.068   0.173 -0.2110 -0.2623  0.0635
 3972SOL    HW111735   4.773   2.028   0.115 -1.2492 -0.8610 -0.8277
 3972SOL    HW211736   4.615   2.071   0.123 -0.1348  3.5310 -0.1175
 3973SOL     OW11737   3.972   2.407   0.332 -0.9385  0.2910 -0.1649
 3973SOL    HW111738   4.034   2.335   0.299  0.0861  0.5036  1.2019
 3973SOL    HW211739   3.900   2.366   0.388 -1.7211  0.1104 -1.2652
 3974SOL     OW11740   3.911   1.594   4.096 -0.0160  0.0845  0.6966
 3974SOL    HW111741   4.006   1.625   4.097 -0.1501  0.5622 -0.3102
 3974SOL    HW211742   3.853   1.667   4.132  0.0541 -0.4391  1.8958
 3975SOL     OW11743   0.013   3.957   3.965 -0.5537  0.2517 -0.4795
 3975SOL    HW111744   0.080   4.022   4.001 -0.5625  1.5593 -2.6288
 3975SOL    HW211745  -0.038   3.916   4.041  1.2282  0.7788  1.0910
 3976SOL     OW11746   4.746   2.933   3.695  0.1036  0.3211  0.2506
 3976SOL    HW111747   4.819   2.986   3.652  0.8879  2.2060  3.5457
 3976SOL    HW211748   4.739   2.958   3.792 -4.9252  0.1805  0.1726
 3977SOL     OW11749   0.727   2.807   4.130 -0.3576 -0.5805 -0.3198
 3977SOL    HW111750   0.764   2.898   4.111 -1.0482 -0.6212 -2.0721
 3977SOL    HW211751   0.635   2.800   4.092  0.1217 -2.3798 -1.2384
 3978SOL     OW11752   4.889   4.174   3.175  0.2631  0.0248  0.2414
 3978SOL    HW111753   4.930   4.211   3.091  0.9696 -1.3028 -0.0330
 3978SOL    HW211754   4.879   4.247   3.242  3.2246  0.4590  0.3591
 3979SOL     OW11755   4.667   1.870   4.237  0.3054 -0.5303  0.3171
 3979SOL    HW111756   4.621   1.888   4.324  1.3527  0.7933  0.6270
 3979SOL    HW211757   4.766   1.879   4.249  0.4164  0.6297 -1.2014
 3980SOL     OW11758   0.468   1.126   4.822 -0.3409  0.5429 -0.0619
 3980SOL    HW111759   0.460   1.038   4.867 -2.4940  0.2558 -0.8686
 3980SOL    HW211760   0.463   1.114   4.723  1.5566  1.4005 -0.3041
 3981SOL     OW11761   3.825   2.741   4.461 -0.7865 -0.0325  0.4782
 3981SOL    HW111762   3.802   2.674   4.531  0.7959  1.9979  3.0960
 3981SOL    HW211763   3.777   2.827   4.479  1.1701  1.1642  0.3025
 3982SOL     OW11764   0.179   1.717   4.647  0.2010  0.3516 -0.2782
 3982SOL    HW111765   0.103   1.705   4.583  0.0197 -0.8827  0.1383
 3982SOL    HW211766   0.171   1.650   4.721  1.5156  0.4164 -0.0493
 3983SOL     OW11767   3.773   2.314   0.458  0.2064 -0.1439 -0.4833
 3983SOL    HW111768   3.695   2.303   0.396  0.2945 -1.2371 -0.4093
 3983SOL    HW211769   3.739   2.326   0.552  0.1254 -1.7007 -0.2901
 3984SOL     OW11770   4.228   2.207   0.188 -0.1150 -0.3020  0.0952
 3984SOL    HW111771   4.188   2.210   0.280 -0.7020  1.1971 -0.1870
 3984SOL    HW211772   4.168   2.155   0.127 -0.7682  0.4458  0.0881
 3985SOL     OW11773   4.362   2.933   4.120  0.5486  0.3699 -0.2943
 3985SOL    HW111774   4.420   3.000   4.071  0.0944  1.0038  0.0236
 3985SOL    HW211775   4.277   2.977   4.148  1.1790  0.3069  1.9129
 3986SOL     OW11776   1.432   3.048   4.897  0.0841  0.0550  0.0664
 3986SOL    HW111777   1.439   3.105   4.815 -0.4141  1.1467  0.7562
 3986SOL    HW211778   1.524   3.031   4.933  0.2799 -0.1044 -0.4979
 3987SOL     OW11779   4.482   3.216   4.731  0.0646  0.2217  0.2224
 3987SOL    HW111780   4.457   3.176   4.643  2.8678  0.3603 -0.7341
 3987SOL    HW211781   4.421   3.181   4.802 -1.8224 -0.4461 -1.6171
 3988SOL     OW11782   4.744   3.174   4.835  0.0532 -0.2172 -0.2397
 3988SOL    HW111783   4.741   3.234   4.915  0.1077  0.2304 -0.5688
 3988SOL    HW211784   4.666   3.193   4.775 -0.4938 -1.1767  0.1427
 3989SOL     OW11785   3.369   2.490   4.769  0.1234  0.2527  0.2770
 3989SOL    HW111786   3.421   2.569   4.734 -1.1416  0.6230 -0.8330
 3989SOL    HW211787   3.272   2.502   4.747 -0.0867 -1.6173  0.0861
 3990SOL     OW11788   3.877   3.461   4.172 -0.7769  0.4181 -0.2158
 3990SOL    HW111789   3.873   3.543   4.114 -2.4103  0.8372  0.4260
 3990SOL    HW211790   3.787   3.444   4.211 -1.1109 -2.9380 -2.0300
 3991SOL     OW11791   4.091   2.217   0.966 -0.1187  0.0776 -0.4453
 3991SOL    HW111792   4.106   2.119   0.973 -1.4059 -0.0814  0.7451
 3991SOL    HW211793   4.069   2.241   0.872 -1.3505 -1.0602 -0.4902
 3992SOL     OW11794   4.900   3.862   4.664  0.3377 -0.4408  0.2268
 3992SOL    HW111795   4.814   3.826   4.700 -0.3180  1.5674  0.8100
 3992SOL    HW211796   4.972   3.852   4.732 -0.0595  0.1671  0.7462
 3993SOL     OW11797   3.317   3.495   0.080  1.1476  0.1748 -0.8004
 3993SOL    HW111798   3.290   3.569   0.019  1.7981  0.0318 -1.2730
 3993SOL    HW211799   3.236   3.461   0.129  0.8241  1.1067 -0.6596
 3994SOL     OW11800   3.570   3.140   4.658  0.2311 -0.3150 -0.0062
 3994SOL    HW111801   3.618   3.080   4.722  0.1997 -1.0871 -0.6923
 3994SOL    HW211802   3.472   3.118   4.660  0.3027 -0.7382 -0.7215
 3995SOL     OW11803   0.503   3.449   4.295 -0.2906  0.2584  0.0548
 3995SOL    HW111804   0.406   3.427   4.292 -0.6469  1.3312  2.1813
 3995SOL    HW211805   0.554   3.382   4.240 -2.0692 -1.0589 -0.0804
 3996SOL     OW11806   1.005   3.916   3.529 -0.0186  0.2026  0.2505
 3996SOL    HW111807   0.930   3.932   3.465  1.6226  0.7536 -1.6512
 3996SOL    HW211808   0.973   3.929   3.623 -2.1676  0.7931 -0.5152
 3997SOL     OW11809   0.070   1.348   4.184 -0.3196  0.0736  0.3518
 3997SOL    HW111810   0.162   1.376   4.156  0.6975 -1.8096  1.5939
 3997SOL    HW211811   0.027   1.296   4.110 -0.7877  1.6666 -0.5602
 3998SOL     OW11812   3.904   4.059   3.935 -0.1765 -0.4460  0.1118
 3998SOL    HW111813   3.885   4.157   3.946 -2.0070 -0.6367 -0.9283
 3998SOL    HW211814   3.824   4.006   3.964  0.4619 -1.5880 -0.1599
 3999SOL     OW11815   4.190   2.070   4.226 -0.4654  0.3394 -0.0318
 3999SOL    HW111816   4.182   2.006   4.149  0.7145  1.3254 -1.0282
 3999SOL    HW211817   4.201   2.020   4.311 -0.9628 -0.7781 -0.6092
 4000SOL     OW11818   3.556   3.465   4.847 -0.0267 -0.2468  0.3283
 4000SOL    HW111819   3.535   3.543   4.789 -1.3161 -0.3760  0.6079
 4000SOL    HW211820   3.582   3.386   4.790 -2.2965 -0.6894 -0.1634
 4001SOL     OW11821   0.772   3.224   3.279 -0.5981  0.5545  0.0071
 4001SOL    HW111822   0.816   3.296   3.333  1.0484 -0.2728 -0.1680
 4001SOL    HW211823   0.799   3.135   3.314 -0.8929  0.0022 -1.1180
 4002SOL     OW11824   3.923   2.988   4.301 -0.3574 -0.4117 -0.1746
 4002SOL    HW111825   3.925   2.890   4.281 -0.6131 -0.3039 -0.7376
 4002SOL    HW211826   3.832   3.013   4.334 -1.0405  0.0511 -2.2467
 4003SOL     OW11827   0.537   2.708   4.410 -0.2907  0.3872 -0.5686
 4003SOL    HW111828   0.595   2.629   4.428 -1.4381 -0.4013 -0.1844
 4003SOL    HW211829   0.538   2.729   4.313  1.4228  1.0453 -0.4448
 4004SOL     OW11830   2.431   3.398   0.938 -0.3051  0.1270  0.3604
 4004SOL    HW111831   2.466   3.306   0.919  0.6901  0.5067  0.2726
 4004SOL    HW211832   2.348   3.414   0.884 -0.7467 -0.8769  0.7197
 4005SOL     OW11833   4.439   2.029   4.667  0.2976  0.0376  0.0140
 4005SOL    HW111834   4.398   1.960   4.727 -3.3123  1.7448 -0.1993
 4005SOL    HW211835   4.473   2.105   4.721  1.4489 -0.5185  0.0905
 4006SOL     OW11836   2.649   2.180   4.068 -0.2459  0.1794  0.1383
 4006SOL    HW111837   2.572   2.243   4.062 -0.9984 -0.8279 -1.3834
 4006SOL    HW211838   2.625   2.094   4.022  2.6339  0.7144 -2.7358
 4007SOL     OW11839   0.452   3.149   4.116  0.1568  0.4209  0.0649
 4007SOL    HW111840   0.477   3.121   4.208 -1.1279  0.0999  0.3304
 4007SOL    HW211841   0.377   3.092   4.082 -0.7263  1.8078 -0.4100
 4008SOL     OW11842   3.902   1.965   3.925  0.1091 -0.4921 -0.4392
 4008SOL    HW111843   3.847   2.044   3.897  0.8014 -0.1697 -0.9198
 4008SOL    HW211844   3.860   1.921   4.004 -1.1940 -0.6545 -1.1973
 4009SOL     OW11845   3.290   3.067   4.674 -0.2469  0.5779 -0.0305
 4009SOL    HW111846   3.259   2.973   4.686 -1.5903  1.0317  0.3251
 4009SOL    HW211847   3.259   3.122   4.752  2.3288  0.9172  0.8401
 4010SOL     OW11848   4.727   5.080   4.449  0.2723 -0.2066 -0.0729
 4010SOL    HW111849   4.667   5.097   4.371 -0.4491 -1.6464  0.1343
 4010SOL    HW211850   4.724   5.157   4.511  0.3034  0.6559 -1.1098
 4011SOL     OW11851   4.584   2.204   4.907 -0.5827 -0.3132  0.3300
 4011SOL    HW111852   4.527   2.152   4.971 -0.8720 -0.8926 -0.3737
 4011SOL    HW211853   4.576   2.301   4.926 -1.2081 -0.4358  0.7345
 4012SOL     OW11854   0.089   2.783   4.570 -0.2510  0.3900  0.1020
 4012SOL    HW111855   0.090   2.836   4.654  0.2281 -0.2111  0.4822
 4012SOL    HW211856   0.056   2.691   4.589 -1.2289  0.5808 -0.5808
 4013SOL     OW11857   3.618   3.523   4.285  0.0846 -0.4312 -0.3464
 4013SOL    HW111858   3.612   3.474   4.372 -0.9286 -1.4322 -0.9524
 4013SOL    HW211859   3.608   3.621   4.301 -0.7945 -0.6577  0.5811
 4014SOL     OW11860   4.793   3.246   4.334 -0.2759  0.0896  0.2270
 4014SOL    HW111861   4.784   3.316   4.263 -0.5622 -0.9469 -0.7741
 4014SOL    HW211862   4.880   3.198   4.323 -2.0908 -2.9908 -2.1950
 4015SOL     OW11863   3.978   3.788   0.095  0.2578  0.7547 -0.1645
 4015SOL    HW111864   4.019   3.704   0.060 -1.0883 -1.0647  2.3193
 4015SOL    HW211865   3.933   3.837   0.020 -1.3416 -2.2064 -1.3227
 4016SOL     OW11866   3.242   2.048   0.223  1.0611  0.2341  0.0640
 4016SOL    HW111867   3.174   2.122   0.229 -0.2236 -0.7355 -1.6374
 4016SOL    HW211868   3.319   2.079   0.167  0.4876  0.2771 -0.7194
 4017SOL     OW11869   5.020   3.120   4.357  0.0390 -0.0508  0.1525
 4017SOL    HW111870   5.071   3.121   4.442  1.6438  0.2540 -0.7778
 4017SOL    HW211871   5.062   3.057   4.292 -0.6221  0.3662 -0.7154
 4018SOL     OW11872   0.989   3.377   4.339  0.3546 -0.6965  0.0928
 4018SOL    HW111873   0.977   3.347   4.244 -3.9968 -1.5940  0.7243
 4018SOL    HW211874   0.964   3.473   4.347  0.8575 -0.5826  0.3132
 4019SOL     OW11875   4.074   3.799   0.357  0.5039 -0.3936  0.7936
 4019SOL    HW111876   4.133   3.720   0.372  0.4089 -0.7637 -0.5795
 4019SOL    HW211877   4.044   3.800   0.261  0.4031  1.2478  0.8134
 4020SOL     OW11878   5.025   4.263   4.705  0.2221 -0.2396 -0.1307
 4020SOL    HW111879   4.945   4.203   4.707  0.0497 -0.0178 -0.3637
 4020SOL    HW211880   5.096   4.225   4.764 -0.1354 -0.3243  0.2455
 4021SOL     OW11881   5.053   2.329   3.575 -0.3185  0.3506  0.1441
 4021SOL    HW111882   4.956   2.338   3.552 -0.3565  1.9378  0.8392
 4021SOL    HW211883   5.067   2.347   3.672  0.5903 -0.6015  0.2102
 4022SOL     OW11884   3.775   3.883   4.990 -0.1215  0.1899 -0.2270
 4022SOL    HW111885   3.748   3.807   4.931 -0.8326 -0.5907  1.0634
 4022SOL    HW211886   3.696   3.941   5.007  0.2049  0.7072 -0.4388
 4023SOL     OW11887   4.674   1.625   4.631  0.5273 -0.1414 -0.3176
 4023SOL    HW111888   4.749   1.558   4.628  0.6619  0.0046 -0.2334
 4023SOL    HW211889   4.620   1.611   4.713  1.7955  1.1817  0.7878
 4024SOL     OW11890   4.001   4.647   4.175  0.0772  0.1932 -0.1990
 4024SOL    HW111891   3.999   4.555   4.135 -1.3359 -0.8197  2.0095
 4024SOL    HW211892   4.072   4.651   4.245  0.6009  1.0247 -0.7703
 4025SOL     OW11893   0.066   0.649   4.814  0.1040  0.4312 -0.3881
 4025SOL    HW111894   0.161   0.678   4.828  0.2753  0.2117 -1.0742
 4025SOL    HW211895   0.056   0.554   4.843 -0.0141  0.5823  0.0843
 4026SOL     OW11896   4.853   2.219   4.206  0.1904 -0.3988  0.2390
 4026SOL    HW111897   4.789   2.296   4.201  2.1231  1.2702 -0.1164
 4026SOL    HW211898   4.875   2.199   4.301  0.5189  0.2208  0.2935
 4027SOL     OW11899   1.166   2.078   4.917  0.3894 -0.1485  0.5906
 4027SOL    HW111900   1.216   2.101   4.834  0.1381 -0.3134  0.3918
 4027SOL    HW211901   1.201   2.132   4.993 -1.1327  1.9881 -0.1377
 4028SOL     OW11902   0.242   1.242   4.917 -0.2659  0.2296  0.4857
 4028SOL    HW111903   0.167   1.187   4.879 -0.7576  0.4724  1.0873
 4028SOL    HW211904   0.329   1.208   4.882 -0.5107 -1.2866  1.2461
 4029SOL     OW11905   3.617   4.396   2.963  0.2557  1.1576  0.7394
 4029SOL    HW111906   3.601   4.429   2.870 -1.1480  0.1160  0.5764
 4029SOL    HW211907   3.682   4.321   2.962 -2.0862 -0.9975  0.1190
 4030SOL     OW11908   4.129   3.784   3.941  0.3939  0.3042 -0.2460
 4030SOL    HW111909   4.157   3.880   3.933 -3.4456  1.6023 -0.2313
 4030SOL    HW211910   4.090   3.753   3.855 -2.1621  0.2120  0.8665
 4031SOL     OW11911   3.135   2.306   4.352  0.2285  0.0087  0.1100
 4031SOL    HW111912   3.174   2.234   4.409  1.3852 -0.0077 -0.6642
 4031SOL    HW211913   3.038   2.289   4.339  0.5099 -1.5146 -0.2041
 4032SOL     OW11914   3.467   1.003   3.459  0.0195  0.0646 -0.0805
 4032SOL    HW111915   3.464   1.102   3.453 -2.1090  0.0601  0.2313
 4032SOL    HW211916   3.452   0.974   3.554  1.5773 -0.5596  0.0070
 4033SOL     OW11917   0.927   2.632   3.017 -0.3780  0.3120  0.5714
 4033SOL    HW111918   0.959   2.671   3.103  0.7895  0.7336 -0.0305
 4033SOL    HW211919   1.005   2.617   2.956 -1.2104  0.2957 -0.5207
 4034SOL     OW11920   4.155   3.407   4.849  0.2402  0.2636 -0.9764
 4034SOL    HW111921   4.191   3.450   4.766  0.0544 -0.2914 -1.3505
 4034SOL    HW211922   4.155   3.308   4.837  0.0111  0.1931 -0.3930
 4035SOL     OW11923   4.080   3.117   4.763 -0.0608  0.8817 -0.2545
 4035SOL    HW111924   4.076   3.036   4.704 -2.1535  0.4901  0.3054
 4035SOL    HW211925   4.151   3.104   4.832  1.6093  0.8328 -1.9138
 4036SOL     OW11926   4.329   3.261   0.071 -0.3097  0.2585  0.1728
 4036SOL    HW111927   4.327   3.359   0.049  1.6710 -0.1923 -2.6154
 4036SOL    HW211928   4.415   3.239   0.117 -0.5037 -0.2226  0.3031
 4037SOL     OW11929   2.668   4.177   3.974 -0.2645 -0.3902  0.4765
 4037SOL    HW111930   2.568   4.174   3.981 -0.4435  1.7760 -0.4134
 4037SOL    HW211931   2.703   4.085   3.962 -2.3065 -1.0747 -0.8449
 4038SOL     OW11932   1.620   0.216   3.593  0.0103 -0.2018 -0.3861
 4038SOL    HW111933   1.694   0.250   3.650  0.5821 -0.3586 -1.0302
 4038SOL    HW211934   1.648   0.133   3.546  0.4062  1.1473 -2.6956
 4039SOL     OW11935   4.626   3.317   3.850  0.8135 -0.0301  0.1165
 4039SOL    HW111936   4.660   3.318   3.756  3.3346 -0.3530  0.9648
 4039SOL    HW211937   4.625   3.224   3.884  2.5619  0.3196  1.2579
 4040SOL     OW11938   4.183   2.183   0.490  0.0221  0.4117  0.2227
 4040SOL    HW111939   4.278   2.210   0.506  0.6449 -0.0233 -2.2859
 4040SOL    HW211940   4.172   2.086   0.509 -0.1892  0.6656  1.4548
 4041SOL     OW11941   5.028   3.158   4.800  0.3495  0.0850  0.4563
 4041SOL    HW111942   4.929   3.168   4.793  0.3036  1.3237  2.1363
 4041SOL    HW211943   5.073   3.229   4.746  0.2824  0.4408  0.8635
 4042SOL     OW11944   4.006   1.366   0.136  0.2312 -0.0323  0.0498
 4042SOL    HW111945   3.960   1.421   0.066  1.4504  2.2145  0.9035
 4042SOL    HW211946   4.064   1.298   0.091  0.3330  0.7917 -1.1239
 4043SOL     OW11947   4.940   3.211   4.069 -0.6064  0.2563 -0.6941
 4043SOL    HW111948   4.966   3.114   4.075 -2.5966 -0.2711  0.1974
 4043SOL    HW211949   5.007   3.260   4.013 -0.2251 -1.8780 -2.2312
 4044SOL     OW11950   4.876   2.160   4.462  0.0336  0.1583  0.2755
 4044SOL    HW111951   4.815   2.174   4.539  2.8816  1.5012  2.4667
 4044SOL    HW211952   4.950   2.227   4.465  2.6416 -2.4199 -1.1057
 4045SOL     OW11953   1.931   2.625   3.863  0.1500 -0.0745  0.1249
 4045SOL    HW111954   1.854   2.613   3.802  0.1607  2.3032 -0.4799
 4045SOL    HW211955   2.005   2.563   3.838 -0.2439  0.1254 -1.6217
 4046SOL     OW11956   3.971   3.177   0.805 -0.2015 -0.6966  0.9817
 4046SOL    HW111957   3.967   3.273   0.833 -2.8958 -0.5532  0.3319
 4046SOL    HW211958   3.883   3.133   0.823  0.5910 -2.7351  0.1506
 4047SOL     OW11959   5.035   3.979   0.478  0.5388  0.1676 -0.0158
 4047SOL    HW111960   5.048   3.887   0.516 -2.3932 -2.1958 -3.9573
 4047SOL    HW211961   4.987   4.036   0.545  0.9405 -1.7026  1.9782
 4048SOL     OW11962   3.946   2.983   0.554 -0.8146 -0.8701  0.1670
 4048SOL    HW111963   3.993   2.975   0.466 -2.9611 -2.2457 -0.9390
 4048SOL    HW211964   3.985   3.059   0.606  0.4304  0.0608 -2.0085
 4049SOL     OW11965   4.199   3.571   0.460 -0.4305  0.2524  0.5644
 4049SOL    HW111966   4.217   3.472   0.453 -0.0366  0.4214 -1.5474
 4049SOL    HW211967   4.275   3.615   0.508  0.1545 -0.2776  0.1460
 4050SOL     OW11968   3.722   0.694   1.328 -0.0394 -0.0961 -0.7751
 4050SOL    HW111969   3.773   0.662   1.407 -2.5591  1.0870  1.5219
 4050SOL    HW211970   3.740   0.635   1.250  1.9120 -1.8674  0.8927
 4051SOL     OW11971   0.340   4.969   4.409 -0.5016 -0.1249  0.4891
 4051SOL    HW111972   0.340   5.018   4.322  0.1158 -1.8266 -0.5300
 4051SOL    HW211973   0.262   4.998   4.465 -0.4715  1.5544 -0.2814
 4052SOL     OW11974   3.486   4.865   0.518  0.0273 -0.4859  0.2818
 4052SOL    HW111975   3.570   4.827   0.480  0.9100  1.6680 -0.0829
 4052SOL    HW211976   3.501   4.894   0.612 -0.6224 -1.0162  0.5598
 4053SOL     OW11977   0.773   3.624   2.047 -0.3655 -0.7415 -0.3779
 4053SOL    HW111978   0.734   3.633   2.139  1.2844  2.0194  0.1515
 4053SOL    HW211979   0.718   3.678   1.983  0.1566 -0.2449 -0.4162
 4054SOL     OW11980   5.049   3.970   1.688 -0.3535  0.0972 -0.0425
 4054SOL    HW111981   5.026   3.876   1.710 -0.3593 -0.0943 -0.8400
 4054SOL    HW211982   4.968   4.028   1.695 -0.8231 -0.3423 -1.5938
 4055SOL     OW11983   4.280   4.336   1.015 -0.0118  0.1365  0.7197
 4055SOL    HW111984   4.272   4.436   1.018  0.4236  0.2699 -1.3463
 4055SOL    HW211985   4.368   4.310   0.976  0.2994 -1.0992  2.1441
 4056SOL     OW11986   3.780   4.791   0.783 -1.0405 -0.3320 -0.0959
 4056SOL    HW111987   3.776   4.873   0.725  1.6987 -0.0550 -0.0303
 4056SOL    HW211988   3.696   4.784   0.836 -0.8983  3.2315  0.8670
 4057SOL     OW11989   3.242   3.529   1.787 -0.4494  0.3789  0.1639
 4057SOL    HW111990   3.321   3.518   1.726 -1.9546  2.2275 -2.2981
 4057SOL    HW211991   3.257   3.607   1.847  0.2695 -0.3237  0.9246
 4058SOL     OW11992   4.633   4.013   0.997 -0.0405  0.7254  0.0294
 4058SOL    HW111993   4.669   4.063   1.076  1.4756  3.1785 -2.0522
 4058SOL    HW211994   4.709   3.976   0.944 -1.0145 -0.7036 -0.4225
 4059SOL     OW11995   4.145   0.044   0.218  0.6451  0.0710  0.0276
 4059SOL    HW111996   4.160  -0.014   0.139 -0.0245  0.9921 -0.7979
 4059SOL    HW211997   4.113  -0.011   0.295  0.5197 -0.7119 -0.5810
 4060SOL     OW11998   4.264   2.765   0.316 -0.2242 -0.0358 -0.3346
 4060SOL    HW111999   4.355   2.763   0.358  0.4178  1.1647 -1.5592
 4060SOL    HW212000   4.196   2.730   0.380  0.9871 -0.2176  0.8918
 4061SOL     OW12001   4.478   3.442   1.412  0.1996  0.5760 -0.0969
 4061SOL    HW112002   4.428   3.387   1.480 -0.1912 -0.9075 -1.5354
 4061SOL    HW212003   4.575   3.443   1.435  0.0166  0.4576  0.7144
 4062SOL     OW12004   4.400   5.061   1.392 -0.4087  0.4364  0.1876
 4062SOL    HW112005   4.393   5.009   1.307  1.0844 -0.1336  0.3815
 4062SOL    HW212006   4.404   5.159   1.371  0.0049  0.3001 -0.4071
 4063SOL     OW12007   4.553   2.514   0.124  0.2645 -0.3540  0.2423
 4063SOL    HW112008   4.582   2.485   0.033 -1.2413  0.0903 -0.4200
 4063SOL    HW212009   4.598   2.458   0.194 -0.1300 -2.1054 -0.8503
 4064SOL     OW12010   4.995   3.953   0.217 -0.3951 -0.5530  0.1399
 4064SOL    HW112011   5.088   3.949   0.181  0.1829 -1.4208  1.6248
 4064SOL    HW212012   4.998   3.970   0.316 -1.7485 -1.6009  0.3994
 4065SOL     OW12013   3.686   4.470   2.112 -0.0565 -0.4918 -0.2075
 4065SOL    HW112014   3.658   4.435   2.023 -2.7507  1.2871 -0.1728
 4065SOL    HW212015   3.618   4.444   2.181  1.7495 -1.4554  1.2960
 4066SOL     OW12016   4.067   3.576   5.047  0.8094  0.1607 -0.5652
 4066SOL    HW112017   4.089   3.534   4.959  0.0981  1.9059 -1.6211
 4066SOL    HW212018   3.981   3.539   5.081  0.3382  0.5088 -1.3425
 4067SOL     OW12019   4.955   3.658   1.464 -0.5042  0.8299 -0.1646
 4067SOL    HW112020   4.949   3.677   1.562 -1.1093 -1.0429  0.2127
 4067SOL    HW212021   5.049   3.637   1.439 -0.7170 -1.3365  0.6239
 4068SOL     OW12022   4.347   4.967   1.982 -0.0269  0.1776 -0.4227
 4068SOL    HW112023   4.371   5.027   1.905  1.1108 -0.6531 -0.7435
 4068SOL    HW212024   4.360   4.871   1.954  0.5142 -0.1292  0.8376
 4069SOL     OW12025   0.066   4.238   1.652 -0.3378  0.2176  0.1621
 4069SOL    HW112026   0.049   4.153   1.702 -0.5599 -0.6173 -1.2892
 4069SOL    HW212027   0.134   4.223   1.581 -0.3158  1.2884 -0.0709
 4070SOL     OW12028   0.496   4.879   2.742 -0.3604  0.0748 -0.1740
 4070SOL    HW112029   0.553   4.800   2.765 -0.4112 -0.4398 -1.7098
 4070SOL    HW212030   0.445   4.860   2.659 -1.3320  1.2700  0.1249
 4071SOL     OW12031   4.460   4.273   1.251 -0.7073 -0.5864  0.5723
 4071SOL    HW112032   4.550   4.241   1.222 -0.9816 -1.4176  0.6054
 4071SOL    HW212033   4.452   4.371   1.235 -0.4378 -0.8169 -1.1039
 4072SOL     OW12034   3.998   4.198   0.253 -0.4562  0.4159 -0.5747
 4072SOL    HW112035   3.979   4.242   0.340 -0.3411 -2.5943  1.0908
 4072SOL    HW212036   3.913   4.160   0.216 -0.0476 -0.9836 -0.1519
 4073SOL     OW12037   0.684   3.401   0.048 -0.2746  0.5259  0.0815
 4073SOL    HW112038   0.599   3.364   0.085  0.2856  0.2083  1.1154
 4073SOL    HW212039   0.724   3.465   0.114  0.4641  0.3944 -0.2284
 4074SOL     OW12040   0.409   3.219   1.032 -0.7325 -0.1763  0.3708
 4074SOL    HW112041   0.397   3.239   0.934  0.6920 -1.9601 -0.2279
 4074SOL    HW212042   0.495   3.259   1.063 -1.4685  0.8982  1.0790
 4075SOL     OW12043   3.501   4.360   0.431  0.6619 -0.0826 -0.4995
 4075SOL    HW112044   3.590   4.405   0.427  1.9712 -2.5786 -1.2882
 4075SOL    HW212045   3.513   4.261   0.432 -2.1671 -0.6059 -3.0930
 4076SOL     OW12046   4.084   4.163   1.058 -0.0501 -0.0238  0.0068
 4076SOL    HW112047   4.131   4.252   1.058 -0.8223  0.4109 -1.1860
 4076SOL    HW212048   4.141   4.097   1.009  0.2977 -0.0635  0.4576
 4077SOL     OW12049   4.631   3.962   0.366  0.1789  0.2787  0.1835
 4077SOL    HW112050   4.714   3.952   0.311 -1.3922 -1.7619 -2.0213
 4077SOL    HW212051   4.569   3.887   0.346 -2.0774  1.5287  2.0473
 4078SOL     OW12052   0.081   3.355   2.036  0.1118  0.4311  0.0148
 4078SOL    HW112053   0.074   3.453   2.016 -0.4229  0.4997  0.5031
 4078SOL    HW212054   0.006   3.306   1.993  0.6123  0.1749 -0.5695
 4079SOL     OW12055   3.826   0.949   1.278  0.3238  0.1529  0.2062
 4079SOL    HW112056   3.835   0.931   1.180 -0.6820 -1.8698  0.4484
 4079SOL    HW212057   3.766   0.881   1.320  1.6927  0.2240  2.4666
 4080SOL     OW12058   0.633   0.765   1.419 -0.6166 -0.0168  0.0915
 4080SOL    HW112059   0.555   0.778   1.481 -0.2740  1.6819  0.2103
 4080SOL    HW212060   0.661   0.669   1.421 -0.0511  0.0719  3.3316
 4081SOL     OW12061   0.212   3.714   4.466  0.1369 -0.3008  0.0449
 4081SOL    HW112062   0.137   3.656   4.496  2.3260 -2.2046  2.3322
 4081SOL    HW212063   0.211   3.721   4.366 -2.4492 -1.0185 -0.0628
 4082SOL     OW12064   4.040   2.832   1.039  0.4411  0.3202  0.6043
 4082SOL    HW112065   4.072   2.764   1.106 -0.3041 -0.0557  0.5893
 4082SOL    HW212066   3.940   2.831   1.036  0.4499  0.8371 -0.0033
 4083SOL     OW12067   4.531   4.764   0.563 -0.1811 -0.8321 -0.5257
 4083SOL    HW112068   4.433   4.746   0.552 -0.0055 -1.6735 -0.7562
 4083SOL    HW212069   4.550   4.860   0.539 -1.1754 -0.2153  1.0336
 4084SOL     OW12070   4.462   4.570   2.432 -0.4772 -0.2489 -0.6391
 4084SOL    HW112071   4.528   4.600   2.363 -0.4296 -1.6037 -1.2157
 4084SOL    HW212072   4.395   4.509   2.390 -2.4439  1.4490 -0.1959
 4085SOL     OW12073   4.938   0.435   2.239 -0.1361 -0.3618  0.3823
 4085SOL    HW112074   5.032   0.457   2.263  0.4810 -1.2845 -1.0637
 4085SOL    HW212075   4.921   0.338   2.256 -0.5140 -0.4213 -0.3166
 4086SOL     OW12076   0.024   3.578   5.062  0.4270  0.0589  0.3911
 4086SOL    HW112077  -0.025   3.490   5.055 -1.6851  1.1949  0.0578
 4086SOL    HW212078   0.075   3.581   5.147  0.8102 -1.6134  0.2556
 4087SOL     OW12079   4.755   3.805   0.161  0.1465  0.4608 -0.1327
 4087SOL    HW112080   4.768   3.707   0.174 -0.6682  0.6017  2.5062
 4087SOL    HW212081   4.841   3.853   0.178 -0.1738  0.3676  2.1217
 4088SOL     OW12082   0.149   4.067   1.315 -0.0380 -0.3789 -0.0738
 4088SOL    HW112083   0.049   4.060   1.321 -0.2358  1.9014  0.1554
 4088SOL    HW212084   0.177   4.077   1.220 -0.3583  2.0172  0.0201
 4089SOL     OW12085   0.058   4.542   1.779  0.0445 -0.0626 -0.3763
 4089SOL    HW112086   0.052   4.443   1.787  0.6031  0.0148  1.2781
 4089SOL    HW212087   0.152   4.569   1.757  0.3024  0.1752  0.9467
 4090SOL     OW12088   4.489   3.091   0.484  0.1643 -0.1769 -0.9538
 4090SOL    HW112089   4.470   3.013   0.544 -0.5351  0.7337  0.0376
 4090SOL    HW212090   4.588   3.102   0.474  0.3811  0.6460  1.4212
 4091SOL     OW12091   4.206   4.860   0.001  0.0950  0.5048  0.2243
 4091SOL    HW112092   4.290   4.853  -0.053 -0.5273 -0.9392 -0.6112
 4091SOL    HW212093   4.227   4.841   0.097  0.7140  0.1505  0.0264
 4092SOL     OW12094   4.795   2.669   0.715  0.5754  0.1166  0.0457
 4092SOL    HW112095   4.805   2.768   0.727  0.7962  0.1968 -0.7032
 4092SOL    HW212096   4.789   2.625   0.804  1.4223  0.7079  0.4109
 4093SOL     OW12097   4.505   0.143   2.164 -0.8575 -0.6437 -0.3251
 4093SOL    HW112098   4.551   0.169   2.079 -0.0322 -0.0718  0.2824
 4093SOL    HW212099   4.407   0.137   2.148 -0.7894  0.2035 -1.1395
 4094SOL     OW12100   4.879   0.125   1.549  0.1672  0.2078 -0.1231
 4094SOL    HW112101   4.820   0.066   1.604  2.4062  0.5777  2.9563
 4094SOL    HW212102   4.843   0.218   1.549 -0.8225 -0.1543 -0.9198
 4095SOL     OW12103   0.684   3.632   4.642  0.2934  0.4938 -0.0332
 4095SOL    HW112104   0.592   3.639   4.604  0.6474 -0.8865 -1.2340
 4095SOL    HW212105   0.681   3.645   4.741 -0.8973  2.4497 -0.2879
 4096SOL     OW12106   4.964   4.710   1.948 -0.3733  0.1313 -0.4839
 4096SOL    HW112107   5.007   4.748   2.030  0.5391 -3.1137  0.6763
 4096SOL    HW212108   5.035   4.675   1.887 -1.0990 -3.2363  0.4076
 4097SOL     OW12109   0.324   5.076   0.788 -0.2075 -0.1123  0.9564
 4097SOL    HW112110   0.414   5.110   0.763 -0.2682 -1.0710 -0.7246
 4097SOL    HW212111   0.308   4.987   0.744 -2.9216  1.1500 -0.9292
 4098SOL     OW12112   4.541   0.231   3.915 -0.3320 -0.0191 -0.5355
 4098SOL    HW112113   4.512   0.143   3.878  3.7192 -1.4272 -0.7970
 4098SOL    HW212114   4.587   0.284   3.844  1.3467  0.2500  0.6842
 4099SOL     OW12115   0.176   3.323   1.168 -0.2988 -0.2693  0.9761
 4099SOL    HW112116   0.255   3.307   1.109  1.2059  0.1610  2.7558
 4099SOL    HW212117   0.101   3.264   1.140  0.6338 -0.7114 -0.7805
 4100SOL     OW12118   4.892   0.804   4.515 -0.1599 -0.6655  0.1404
 4100SOL    HW112119   4.879   0.720   4.462  0.7237  0.0279 -1.2326
 4100SOL    HW212120   4.873   0.884   4.457 -0.8904  0.1053  1.3914
 4101SOL     OW12121   4.759   3.780   1.297  0.9389  0.2172 -0.4726
 4101SOL    HW112122   4.814   3.854   1.258  0.7821  0.5721 -0.0353
 4101SOL    HW212123   4.816   3.726   1.360  0.4900  1.3753  0.9954
 4102SOL     OW12124   1.100   3.517   1.646  0.1490 -0.2787  0.1998
 4102SOL    HW112125   1.070   3.611   1.630 -1.7633 -0.8773  0.0179
 4102SOL    HW212126   1.082   3.461   1.565  4.0861 -0.2475 -0.9035
 4103SOL     OW12127   3.672   4.236   1.073 -0.0896 -0.3815  0.0489
 4103SOL    HW112128   3.677   4.189   1.161 -1.9193 -0.0440  0.3774
 4103SOL    HW212129   3.626   4.178   1.006 -0.5331  0.1324 -0.1043
 4104SOL     OW12130   4.842   0.478   4.785  0.9937  0.0710 -0.3087
 4104SOL    HW112131   4.772   0.412   4.813 -0.5136  1.3948 -0.7907
 4104SOL    HW212132   4.917   0.479   4.852  0.5068 -1.2972  0.2824
 4105SOL     OW12133   0.073   0.322   0.163 -0.4915 -0.0262  0.3283
 4105SOL    HW112134   0.067   0.222   0.171 -1.3583  0.0987  1.5454
 4105SOL    HW212135  -0.002   0.363   0.216  0.8741  1.3077  1.2893
 4106SOL     OW12136   5.066   3.763   0.624  0.2373 -0.2550  0.1075
 4106SOL    HW112137   5.155   3.721   0.641  0.3928 -0.1925 -0.5158
 4106SOL    HW212138   5.003   3.695   0.586  0.2756 -0.1006 -0.2382
 4107SOL     OW12139   4.975   4.455   1.072  0.2182  0.1040 -0.2775
 4107SOL    HW112140   5.033   4.469   1.152  1.0341  0.1186 -0.8625
 4107SOL    HW212141   4.880   4.445   1.102  0.5171  0.0232  0.6982
 4108SOL     OW12142   4.257   0.108   0.856  0.0029 -0.1412 -0.0706
 4108SOL    HW112143   4.346   0.107   0.902  0.9000  1.3859 -1.6479
 4108SOL    HW212144   4.192   0.161   0.911  0.7782  0.8402 -0.0794
 4109SOL     OW12145   4.536   4.123   0.124 -0.2719  0.1130 -0.7476
 4109SOL    HW112146   4.517   4.036   0.077 -1.6392  0.0956 -0.2162
 4109SOL    HW212147   4.499   4.119   0.217 -1.0816  1.5504 -0.9806
 4110SOL     OW12148   4.134   0.304   4.408  0.5432 -0.1756 -0.7142
 4110SOL    HW112149   4.114   0.360   4.489 -1.2192 -0.3519 -0.9693
 4110SOL    HW212150   4.173   0.361   4.336  1.7250  0.0679  0.1032
 4111SOL     OW12151   4.737   4.794   1.044 -0.0183 -0.1267 -0.1767
 4111SOL    HW112152   4.773   4.873   0.994 -0.6599 -0.0482 -0.5346
 4111SOL    HW212153   4.738   4.813   1.142  1.0876 -0.2124 -0.1563
 4112SOL     OW12154   3.875   4.610   2.251  0.6094 -0.6946 -0.1021
 4112SOL    HW112155   3.857   4.644   2.343 -0.0230 -0.6156 -0.2466
 4112SOL    HW212156   3.797   4.556   2.220  0.4423 -0.0131 -0.9099
 4113SOL     OW12157   0.199   4.450   5.051  0.2264 -0.3700  0.0114
 4113SOL    HW112158   0.294   4.473   5.030  0.7477 -0.9793  1.5634
 4113SOL    HW212159   0.169   4.376   4.990  1.4537 -1.6218  0.8526
 4114SOL     OW12160   3.690   3.568   2.041  0.2541 -0.4069 -0.5767
 4114SOL    HW112161   3.787   3.583   2.061  0.3866 -0.9187 -0.8034
 4114SOL    HW212162   3.634   3.605   2.115  0.6266 -0.1161 -0.4401
 4115SOL     OW12163   2.582   2.569   1.313  0.1210  0.4441  0.6192
 4115SOL    HW112164   2.662   2.521   1.346 -1.2064 -1.7949  0.7951
 4115SOL    HW212165   2.607   2.662   1.285  2.9069 -0.4549 -0.1557
 4116SOL     OW12166   0.601   3.785   1.868 -0.3166  0.1523  0.4071
 4116SOL    HW112167   0.551   3.814   1.786 -1.2593 -1.2814  0.4283
 4116SOL    HW212168   0.555   3.821   1.949  0.0757  0.8081  0.3373
 4117SOL     OW12169   4.753   3.430   1.438  0.5529  0.1451  0.9495
 4117SOL    HW112170   4.783   3.334   1.446  1.1148  0.2415  0.0722
 4117SOL    HW212171   4.820   3.489   1.482 -0.0671  0.1061  1.9774
 4118SOL     OW12172   4.963   4.617   0.827 -0.4467  0.4128 -0.3531
 4118SOL    HW112173   4.871   4.657   0.828 -1.2722 -1.3775  0.3062
 4118SOL    HW212174   4.978   4.566   0.911  0.3762 -0.9404 -1.2726
 4119SOL     OW12175   4.633   3.645   0.461  0.2859  0.2022  0.1580
 4119SOL    HW112176   4.629   3.710   0.385 -2.0484 -0.8142 -0.6894
 4119SOL    HW212177   4.600   3.556   0.430  0.1508 -0.4864  2.1372
 4120SOL     OW12178   4.296   3.283   0.549  0.0185  0.2656 -0.6536
 4120SOL    HW112179   4.321   3.317   0.640 -0.7096  1.3169 -0.8205
 4120SOL    HW212180   4.324   3.188   0.539  2.2707  0.8253 -0.1955
 4121SOL     OW12181   4.738   4.568   0.220  0.5407  0.3206  0.7994
 4121SOL    HW112182   4.776   4.574   0.128  0.9506 -0.1499  0.9311
 4121SOL    HW212183   4.724   4.660   0.256  1.2007  0.5066  0.5971
 4122SOL     OW12184   0.176   2.962   0.735  0.2894 -0.4550 -0.0672
 4122SOL    HW112185   0.255   2.910   0.767  1.4457 -0.3764 -2.5651
 4122SOL    HW212186   0.103   2.958   0.804  1.4302 -2.8420  1.1208
 4123SOL     OW12187   5.062   3.851   1.063  0.4684 -0.5478 -0.1136
 4123SOL    HW112188   5.032   3.778   1.125  1.6717  0.2772  1.4883
 4123SOL    HW212189   5.147   3.824   1.019  0.4597 -0.4568 -0.1853
 4124SOL     OW12190   0.253   4.274   0.197  0.4773  0.2266  0.4187
 4124SOL    HW112191   0.211   4.326   0.122  1.1333 -0.4192 -0.4094
 4124SOL    HW212192   0.198   4.285   0.280 -1.0929 -0.2467 -0.5210
 4125SOL     OW12193   0.737   4.959   1.024 -0.6308  0.5725 -0.2931
 4125SOL    HW112194   0.710   4.876   1.072  0.0786 -0.7358 -2.0164
 4125SOL    HW212195   0.701   5.039   1.072 -0.8078 -0.6769  1.7643
 4126SOL     OW12196   0.874   3.366   1.777 -0.3067  0.3598 -0.4122
 4126SOL    HW112197   0.809   3.439   1.758  0.4628  1.2632  0.2678
 4126SOL    HW212198   0.967   3.399   1.759 -0.0158 -0.8465 -1.2282
 4127SOL     OW12199   4.962   3.599   1.125  0.6057 -0.7025 -0.0816
 4127SOL    HW112200   4.873   3.556   1.138  0.6760 -1.3745 -1.5664
 4127SOL    HW212201   4.990   3.590   1.029  0.5284  2.8753 -0.5910
 4128SOL     OW12202   0.829   0.992   4.777 -0.3141 -0.2370  0.2198
 4128SOL    HW112203   0.872   0.918   4.726  1.3283  0.5153  0.4544
 4128SOL    HW212204   0.808   1.067   4.715  1.0623  0.4040  0.4901
 4129SOL     OW12205   4.404   0.314   1.347 -0.2212 -0.4428 -0.0701
 4129SOL    HW112206   4.309   0.344   1.354 -0.0149  0.1568  0.3207
 4129SOL    HW212207   4.440   0.338   1.256  0.0491  0.8971  0.3552
 4130SOL     OW12208   0.163   3.497   0.738 -0.2554 -0.1606 -0.4798
 4130SOL    HW112209   0.259   3.511   0.714 -0.7562  1.6398 -1.5908
 4130SOL    HW212210   0.137   3.402   0.719  0.9124 -0.2798 -1.6005
 4131SOL     OW12211   3.865   3.854   0.806 -0.0271 -0.2523  0.7949
 4131SOL    HW112212   3.796   3.825   0.873  0.5057  1.0722  1.9677
 4131SOL    HW212213   3.821   3.909   0.735 -0.2111  0.6407  1.5731
 4132SOL     OW12214   4.230   4.571   0.370 -0.0517 -0.4070  0.3485
 4132SOL    HW112215   4.166   4.500   0.398 -1.8418  0.3561 -1.5438
 4132SOL    HW212216   4.322   4.532   0.363 -0.7631 -2.2070  0.5722
 4133SOL     OW12217   4.507   0.403   1.562 -0.3941  0.0337 -0.2647
 4133SOL    HW112218   4.462   0.358   1.484 -0.4107  0.8206 -0.7137
 4133SOL    HW212219   4.503   0.502   1.550 -0.4016  0.1629  0.7490
 4134SOL     OW12220   0.382   4.382   0.645 -0.1792 -0.2451 -0.2359
 4134SOL    HW112221   0.298   4.370   0.698 -0.0481  0.3972  0.1187
 4134SOL    HW212222   0.457   4.334   0.690 -0.2752 -0.5233 -0.3672
 4135SOL     OW12223   3.293   3.435   0.788 -0.0844 -0.0780 -0.0490
 4135SOL    HW112224   3.222   3.452   0.856  0.9322 -0.0610  1.0503
 4135SOL    HW212225   3.375   3.487   0.812  0.8204 -1.2795 -0.4001
 4136SOL     OW12226   3.192   4.612   1.463  0.1041  0.2229  0.6588
 4136SOL    HW112227   3.286   4.605   1.431  0.1494 -1.9434  1.0922
 4136SOL    HW212228   3.164   4.525   1.503 -1.7304  1.1623  1.5700
 4137SOL     OW12229   4.173   3.771   1.457 -0.4488  0.1973 -1.0375
 4137SOL    HW112230   4.239   3.795   1.386  0.1226  0.0417 -0.5763
 4137SOL    HW212231   4.211   3.795   1.547 -0.4992 -0.9852 -0.6762
 4138SOL     OW12232   0.151   4.223   1.056 -0.4805  0.4125  0.4974
 4138SOL    HW112233   0.196   4.157   0.995 -0.5355  0.0157  0.8775
 4138SOL    HW212234   0.052   4.208   1.054 -0.4302 -0.1084  1.2451
 4139SOL     OW12235   4.750   4.100   4.882 -0.2121 -0.2685  0.3567
 4139SOL    HW112236   4.730   4.106   4.784  1.5145 -3.0349 -0.2819
 4139SOL    HW212237   4.721   4.011   4.916  1.8241 -0.5118  1.6264
 4140SOL     OW12238   1.032   0.046   0.449  0.0938  0.3578  0.3334
 4140SOL    HW112239   0.992  -0.010   0.376  1.0690 -0.1495  0.1702
 4140SOL    HW212240   1.107   0.100   0.412  0.2618  0.4887  0.8584
 4141SOL     OW12241   0.171   4.337   2.153  0.9855  0.3833 -0.0465
 4141SOL    HW112242   0.175   4.279   2.234  0.5717  0.6945  0.2003
 4141SOL    HW212243   0.128   4.424   2.177 -1.8902 -0.5839 -1.2094
 4142SOL     OW12244   0.072   4.739   0.513 -0.1340  0.5506 -0.3546
 4142SOL    HW112245  -0.006   4.794   0.543 -0.7063 -1.6517  2.7073
 4142SOL    HW212246   0.042   4.644   0.498  1.5864  0.0975 -1.2118
 4143SOL     OW12247   0.364   4.700   0.395 -0.6482  0.2160 -0.0292
 4143SOL    HW112248   0.442   4.717   0.455 -0.1322 -1.8675 -0.0320
 4143SOL    HW212249   0.281   4.686   0.449 -0.2914 -1.0966  0.2309
 4144SOL     OW12250   4.620   3.868   4.999  0.3781 -0.1307 -0.0460
 4144SOL    HW112251   4.669   3.835   5.079  0.4085 -0.1952 -0.0911
 4144SOL    HW212252   4.650   3.818   4.918 -0.5240 -0.9155  0.0902
 4145SOL     OW12253   4.841   5.060   0.343  0.3462  0.0920 -0.2315
 4145SOL    HW112254   4.906   5.112   0.398  1.1695 -2.2073  1.0982
 4145SOL    HW212255   4.818   5.112   0.261  3.0073  1.4722 -0.2167
 4146SOL     OW12256   3.521   4.960   0.771  0.1257 -0.1138  0.2515
 4146SOL    HW112257   3.464   5.016   0.831  1.0947  0.5413  0.5817
 4146SOL    HW212258   3.610   5.004   0.758  0.5189 -1.0480 -0.3637
 4147SOL     OW12259   0.174   4.382   0.815  0.0556  0.2502 -0.0269
 4147SOL    HW112260   0.093   4.377   0.757  0.1940 -0.5239 -0.1672
 4147SOL    HW212261   0.157   4.332   0.900 -0.1560  1.4002  0.6252
 4148SOL     OW12262   4.547   3.687   1.132 -0.0357  0.8353 -0.1392
 4148SOL    HW112263   4.580   3.700   1.039  0.6321 -0.0250 -0.0298
 4148SOL    HW212264   4.624   3.689   1.196 -0.2263 -0.5994  0.1733
 4149SOL     OW12265   4.089   2.434   1.765  0.0689  0.0584  0.2540
 4149SOL    HW112266   4.167   2.374   1.781 -0.6956 -1.0829 -0.1853
 4149SOL    HW212267   4.032   2.436   1.847  0.6107  1.0095  0.6280
 4150SOL     OW12268   0.028   0.191   4.499  0.0482 -0.7215 -0.1482
 4150SOL    HW112269  -0.052   0.244   4.528  1.6119  1.0852  1.1056
 4150SOL    HW212270   0.081   0.244   4.433 -0.9685 -2.8814 -2.8625
 4151SOL     OW12271   0.330   0.746   3.943 -0.3426 -0.5221 -0.1021
 4151SOL    HW112272   0.261   0.742   3.870 -1.6022 -1.7279  1.0728
 4151SOL    HW212273   0.285   0.733   4.032  1.2670 -0.1048  0.8173
 4152SOL     OW12274   2.688   4.189   0.496  0.0547 -0.6765 -0.0780
 4152SOL    HW112275   2.740   4.199   0.581 -0.9641 -0.0741  0.4914
 4152SOL    HW212276   2.642   4.275   0.475 -3.1161 -1.9294  1.0482
 4153SOL     OW12277   3.228   4.363   1.568 -0.1475  0.6298  0.5154
 4153SOL    HW112278   3.148   4.305   1.581 -0.3224  0.7832  0.1296
 4153SOL    HW212279   3.294   4.317   1.509 -0.1176  0.6594  0.5255
 4154SOL     OW12280   3.374   3.063   3.261  0.2377  0.1446  0.7932
 4154SOL    HW112281   3.332   3.128   3.324  1.5431  0.7003  1.1223
 4154SOL    HW212282   3.411   2.985   3.312  0.6200  0.2209  0.6356
 4155SOL     OW12283   2.956   4.392   1.418 -0.2143  0.1148 -0.3590
 4155SOL    HW112284   2.896   4.314   1.431  0.0213  0.2614  2.0736
 4155SOL    HW212285   2.904   4.477   1.429  0.1830  0.2528  0.5208
 4156SOL     OW12286   3.979   4.426   3.261 -0.4871 -0.8303 -0.3604
 4156SOL    HW112287   4.021   4.371   3.334 -1.2652 -0.4616  0.3904
 4156SOL    HW212288   4.050   4.472   3.208  0.0812  0.9792  1.7980
 4157SOL     OW12289   0.012   3.179   1.736  0.0367  0.1603  0.5186
 4157SOL    HW112290   0.027   3.234   1.654 -1.4084  1.0040  0.7805
 4157SOL    HW212291   0.099   3.143   1.770  0.6887  0.0700 -1.1837
 4158SOL     OW12292   0.417   0.613   3.196  0.1980  0.1638 -0.2495
 4158SOL    HW112293   0.319   0.610   3.212  0.1661  1.1689 -0.2036
 4158SOL    HW212294   0.463   0.645   3.280  0.6416 -1.1031  0.0055
 4159SOL     OW12295   5.052   3.564   4.572  0.3090  0.1392 -0.8324
 4159SOL    HW112296   4.954   3.545   4.567  0.5668 -0.9972 -2.4583
 4159SOL    HW212297   5.072   3.613   4.656 -1.4465 -0.9203  0.2757
 4160SOL     OW12298   0.484   4.052   3.096 -0.1446 -0.6886 -0.0193
 4160SOL    HW112299   0.467   4.118   3.169 -1.1800 -1.6662  0.6684
 4160SOL    HW212300   0.496   4.100   3.009 -2.6887  0.3696  0.1136
 4161SOL     OW12301   4.168   0.847   3.414  0.2006  0.7722  0.2953
 4161SOL    HW112302   4.264   0.839   3.440  0.6072 -0.4128 -1.3724
 4161SOL    HW212303   4.132   0.756   3.393 -0.9207  1.3292 -0.3039
 4162SOL     OW12304   0.195   0.203   2.618 -0.3591 -0.0996 -0.3424
 4162SOL    HW112305   0.289   0.235   2.630  0.3027 -1.5070 -1.5593
 4162SOL    HW212306   0.174   0.134   2.688 -0.8087  0.8230  0.4639
 4163SOL     OW12307   4.648   3.952   3.040  0.4798  0.1149 -0.0778
 4163SOL    HW112308   4.717   3.941   3.112 -0.3100 -0.6467  0.5966
 4163SOL    HW212309   4.561   3.915   3.073 -0.2319  0.9969 -0.9357
 4164SOL     OW12310   4.380   4.663   1.656  0.0415 -0.3998  0.2465
 4164SOL    HW112311   4.437   4.582   1.668  0.4167 -0.1082  0.4658
 4164SOL    HW212312   4.361   4.705   1.745  0.2964  0.0539  0.0901
 4165SOL     OW12313   4.901   4.865   0.547  0.5585 -0.1641  0.0989
 4165SOL    HW112314   4.827   4.803   0.575  0.8317 -0.8057 -0.5611
 4165SOL    HW212315   4.876   4.912   0.463  0.3236  0.6934  0.6376
 4166SOL     OW12316   4.210   3.672   2.576 -0.1472 -0.1665  0.1930
 4166SOL    HW112317   4.230   3.760   2.620 -2.3393  0.2871  0.3748
 4166SOL    HW212318   4.254   3.670   2.486 -1.0387  1.6734 -0.3443
 4167SOL     OW12319   0.045   3.542   2.537 -0.6343  0.3452 -0.0654
 4167SOL    HW112320   0.020   3.486   2.459  0.7041  0.6525 -0.7522
 4167SOL    HW212321  -0.005   3.512   2.618 -1.6763 -0.2903 -0.9317
 4168SOL     OW12322   0.764   4.909   3.911 -0.0419  0.4269  0.2730
 4168SOL    HW112323   0.824   4.927   3.833  1.2594  0.9127  1.3429
 4168SOL    HW212324   0.808   4.941   3.995 -1.8139  0.8003  1.1119
 4169SOL     OW12325   4.789   4.383   1.742  0.4187  0.9906  0.1302
 4169SOL    HW112326   4.818   4.289   1.761 -0.1658  1.1604  2.0235
 4169SOL    HW212327   4.834   4.415   1.658 -1.2002 -1.7714 -1.9639
 4170SOL     OW12328   3.374   0.070   2.962  0.5754  0.6753 -0.1109
 4170SOL    HW112329   3.369   0.168   2.943  0.0652  1.2757  2.7375
 4170SOL    HW212330   3.283   0.030   2.953  0.4275  0.8550  0.5728
 4171SOL     OW12331   0.010   0.011   3.465 -0.3272 -0.4590 -0.9557
 4171SOL    HW112332   0.085   0.060   3.420 -0.6864 -0.1920 -1.2711
 4171SOL    HW212333   0.005   0.038   3.561  0.1993 -0.7375 -0.8505
 4172SOL     OW12334   1.320   5.077   2.880 -0.7485  0.3608 -0.0314
 4172SOL    HW112335   1.414   5.077   2.845 -1.4025 -0.0608 -1.9533
 4172SOL    HW212336   1.299   4.987   2.918 -0.1100  0.7375  1.2617
 4173SOL     OW12337   4.311   4.764   2.251  0.8397 -0.0145 -0.6355
 4173SOL    HW112338   4.397   4.723   2.222  0.6435  0.5392 -2.1401
 4173SOL    HW212339   4.235   4.703   2.226  0.7152  0.1215 -0.5946
 4174SOL     OW12340   4.451   4.264   4.344 -0.3353 -0.2563 -0.5020
 4174SOL    HW112341   4.522   4.285   4.277  1.5644 -1.7742  0.9108
 4174SOL    HW212342   4.363   4.296   4.311  1.0990  2.5622 -1.9458
 4175SOL     OW12343   5.041   0.632   2.741 -0.0779  0.1323  0.2908
 4175SOL    HW112344   5.120   0.583   2.779 -0.8416 -0.4337  1.1976
 4175SOL    HW212345   4.957   0.591   2.776 -0.8081  0.1769 -1.3450
 4176SOL     OW12346   4.276   4.716   3.745 -0.7416  0.5150 -0.2670
 4176SOL    HW112347   4.293   4.647   3.675 -1.3119  0.7108 -0.6018
 4176SOL    HW212348   4.178   4.723   3.763 -0.5795  0.1331  0.8956
 4177SOL     OW12349   4.657   0.874   2.489  0.4620 -0.6300 -0.6326
 4177SOL    HW112350   4.560   0.850   2.486  0.3652 -0.2322 -0.7388
 4177SOL    HW212351   4.682   0.897   2.583  0.5764 -1.2162 -0.5131
 4178SOL     OW12352   3.789   0.147   2.509 -0.1163 -0.1656 -0.1047
 4178SOL    HW112353   3.824   0.053   2.510 -1.7557 -0.8088  0.4585
 4178SOL    HW212354   3.690   0.145   2.497 -0.0129  1.5780 -1.6414
 4179SOL     OW12355   4.369   4.294   2.956  0.4425 -0.4572  0.0567
 4179SOL    HW112356   4.457   4.258   2.923  0.7145 -1.0104  1.3278
 4179SOL    HW212357   4.384   4.384   2.998  0.3422 -0.3806 -0.0736
 4180SOL     OW12358   4.118   4.441   1.786 -0.1236 -0.0579 -0.8285
 4180SOL    HW112359   4.070   4.525   1.759  0.2356 -0.3345 -2.4524
 4180SOL    HW212360   4.052   4.366   1.795 -0.6501  0.6249  1.9818
 4181SOL     OW12361   4.109   4.239   2.904  0.7656  0.2369 -0.1031
 4181SOL    HW112362   4.209   4.249   2.897  0.9041 -1.5890 -1.2474
 4181SOL    HW212363   4.068   4.330   2.914  2.4021  1.2344 -1.6326
 4182SOL     OW12364   4.700   3.783   3.419 -0.0425 -0.5054  0.0269
 4182SOL    HW112365   4.652   3.856   3.468 -0.6214 -0.1189 -1.0743
 4182SOL    HW212366   4.783   3.758   3.468  0.2178  0.9643  0.3708
 4183SOL     OW12367   4.330   4.699   2.878 -0.3336  0.1145 -0.3902
 4183SOL    HW112368   4.333   4.795   2.850 -0.6792 -0.1387 -1.3140
 4183SOL    HW212369   4.317   4.641   2.798 -0.1011 -0.7141  0.1582
 4184SOL     OW12370   0.321   3.510   2.418 -0.1356  0.0857 -0.7884
 4184SOL    HW112371   0.246   3.535   2.478 -0.4933  1.7812 -1.8696
 4184SOL    HW212372   0.408   3.523   2.465 -0.4697 -0.4010 -0.0358
 4185SOL     OW12373   4.779   3.356   3.330  0.0265  0.4913  0.3983
 4185SOL    HW112374   4.865   3.348   3.281 -0.8314  0.3218 -1.1705
 4185SOL    HW212375   4.728   3.435   3.296 -0.6293  0.3328  0.9803
 4186SOL     OW12376   4.756   4.796   2.603 -0.1654  0.4863 -0.0793
 4186SOL    HW112377   4.786   4.887   2.634 -0.2181  0.4017  0.2218
 4186SOL    HW212378   4.837   4.739   2.587 -0.1512  0.3826  0.3559
 4187SOL     OW12379   4.839   3.871   2.261  0.0376 -0.2664  0.8833
 4187SOL    HW112380   4.850   3.921   2.347  1.3140 -1.0695  1.2140
 4187SOL    HW212381   4.897   3.789   2.262 -0.6766 -0.8128 -0.3525
 4188SOL     OW12382   4.537   3.113   1.493 -0.0373 -0.4054  0.2454
 4188SOL    HW112383   4.460   3.133   1.553  0.0564 -0.1211  0.2757
 4188SOL    HW212384   4.517   3.144   1.401  0.8451  1.6308  0.6793
 4189SOL     OW12385   4.111   3.783   1.118 -0.2025  0.0974 -0.4157
 4189SOL    HW112386   4.194   3.765   1.170 -1.0955 -1.2111  0.6188
 4189SOL    HW212387   4.133   3.841   1.039  1.5723  0.2257  0.1294
 4190SOL     OW12388   3.953   3.980   1.209 -0.1392  0.4292 -0.6705
 4190SOL    HW112389   3.988   3.893   1.174 -0.1325 -0.0337  0.4519
 4190SOL    HW212390   3.994   4.056   1.157 -0.0408 -0.2203 -1.5640
 4191SOL     OW12391   0.080   3.598   1.297 -0.1756 -0.1658 -0.2202
 4191SOL    HW112392   0.142   3.527   1.263 -0.0268 -0.7323  1.1857
 4191SOL    HW212393  -0.001   3.602   1.238  0.9953  0.3348 -1.8570
 4192SOL     OW12394   0.185   0.668   3.310  0.2414  0.3810 -0.6259
 4192SOL    HW112395   0.248   0.734   3.350  0.1727  0.9540 -1.4365
 4192SOL    HW212396   0.091   0.698   3.324  0.2387  1.1515 -2.1174
 4193SOL     OW12397   4.522   0.106   3.229  0.5928 -0.5257  0.4976
 4193SOL    HW112398   4.494   0.017   3.193 -1.0818  0.3006 -0.3828
 4193SOL    HW212399   4.535   0.170   3.153 -2.7439  1.1954  1.1752
 4194SOL     OW12400   4.779   5.039   1.742  0.0902 -0.1782 -0.7580
 4194SOL    HW112401   4.740   4.987   1.818 -0.0771  0.1842 -0.5945
 4194SOL    HW212402   4.872   5.008   1.725  1.0628  1.4232  1.2439
 4195SOL     OW12403   4.462   4.190   1.833  1.1454  0.5811  0.6395
 4195SOL    HW112404   4.531   4.148   1.774 -0.3665 -0.8751 -0.1662
 4195SOL    HW212405   4.442   4.129   1.910 -2.2703 -1.2116 -1.4120
 4196SOL     OW12406   4.098   3.503   2.951 -0.2048  0.3499 -0.1690
 4196SOL    HW112407   4.183   3.556   2.953  0.6110 -0.8414 -1.7121
 4196SOL    HW212408   4.046   3.528   2.869 -1.9387  1.8653  1.2905
 4197SOL     OW12409   4.766   3.364   3.610 -0.6890  0.6417 -0.6329
 4197SOL    HW112410   4.855   3.339   3.646 -1.6356 -0.2455  1.2520
 4197SOL    HW212411   4.748   3.313   3.526 -0.2923 -0.8203  0.1394
 4198SOL     OW12412   4.427   4.841   2.539  0.0377  0.9086 -0.1835
 4198SOL    HW112413   4.382   4.895   2.468 -1.7029 -1.0377 -0.6542
 4198SOL    HW212414   4.442   4.748   2.505  0.7672  0.4221  1.3983
 4199SOL     OW12415   3.973   4.642   1.666 -1.0399  0.6715  0.1583
 4199SOL    HW112416   4.047   4.685   1.614 -1.0975 -0.7870 -1.2032
 4199SOL    HW212417   3.899   4.617   1.604 -1.8774  0.4418  1.2254
 4200SOL     OW12418   4.772   3.293   2.322  0.1609  0.1874 -0.1042
 4200SOL    HW112419   4.744   3.283   2.417  0.6068  0.3307  0.0435
 4200SOL    HW212420   4.765   3.204   2.276 -1.7556  0.4498 -0.4225
 4201SOL     OW12421   1.470   5.082   3.962 -0.0242  0.0288  0.3190
 4201SOL    HW112422   1.452   4.987   3.936 -0.3118 -0.3215  1.7296
 4201SOL    HW212423   1.546   5.085   4.027 -0.6832  0.6551  1.0757
 4202SOL     OW12424   3.792   4.789   3.843 -0.0071  0.3428 -0.0815
 4202SOL    HW112425   3.801   4.837   3.930 -3.3900  2.6496 -0.8018
 4202SOL    HW212426   3.727   4.714   3.854 -1.2724  1.2937 -0.7284
 4203SOL     OW12427   4.641   4.198   2.936 -0.1218 -0.3335 -0.3053
 4203SOL    HW112428   4.612   4.113   2.980  0.1536 -0.1226  0.2957
 4203SOL    HW212429   4.737   4.217   2.959 -0.3070  0.3624 -0.0792
 4204SOL     OW12430   2.855   3.776   3.809 -0.5787  0.0004  0.1163
 4204SOL    HW112431   2.870   3.805   3.903  3.1665 -0.2310 -0.2637
 4204SOL    HW212432   2.850   3.856   3.749  0.3868  0.1000  0.1550
 4205SOL     OW12433   0.804   4.239   3.614  0.5317 -0.4820  0.2813
 4205SOL    HW112434   0.860   4.171   3.662  0.6536  1.0124  2.3927
 4205SOL    HW212435   0.728   4.267   3.672  0.5025  1.1963 -0.5027
 4206SOL     OW12436   4.053   4.746   2.724  0.1830 -0.0743 -0.5791
 4206SOL    HW112437   4.135   4.709   2.769  0.0878 -0.4554 -0.7102
 4206SOL    HW212438   3.991   4.783   2.792  0.9283  1.1758 -0.5525
 4207SOL     OW12439   3.928   4.262   1.872 -0.3560  0.6671 -0.4268
 4207SOL    HW112440   3.953   4.229   1.963 -0.8315 -0.6812 -0.7542
 4207SOL    HW212441   3.921   4.184   1.810  0.6862  1.6375 -1.8104
 4208SOL     OW12442   4.807   1.238   2.428 -0.3003 -0.1405 -0.1885
 4208SOL    HW112443   4.875   1.212   2.496 -0.7763  0.5467  0.5691
 4208SOL    HW212444   4.792   1.337   2.432  1.9079  0.4498 -3.3740
 4209SOL     OW12445   4.368   4.678   3.415 -0.0487  0.1609 -0.0158
 4209SOL    HW112446   4.425   4.703   3.337  2.0425  1.1968  1.7519
 4209SOL    HW212447   4.337   4.762   3.461 -0.2892 -0.4488  0.9513
 4210SOL     OW12448   4.380   4.266   5.005  0.2578 -0.3563  0.0149
 4210SOL    HW112449   4.454   4.242   5.068  0.9562  1.2317 -0.1392
 4210SOL    HW212450   4.297   4.288   5.057 -0.1196 -2.0795  0.1926
 4211SOL     OW12451   4.191   3.820   4.506 -0.1843  0.1240 -0.4892
 4211SOL    HW112452   4.113   3.878   4.531 -0.1036  1.1403 -2.4265
 4211SOL    HW212453   4.275   3.860   4.543 -0.1825  1.0331 -1.4381
 4212SOL     OW12454   1.227   4.761   3.394  0.4440 -0.2704 -0.0537
 4212SOL    HW112455   1.207   4.726   3.303  1.0084  1.6901 -0.9827
 4212SOL    HW212456   1.308   4.714   3.430 -0.7573 -2.2590  0.2076
 4213SOL     OW12457   0.391   4.970   2.988 -0.2061  0.1862 -0.6303
 4213SOL    HW112458   0.432   4.952   2.899  0.8547  4.0265 -1.0664
 4213SOL    HW212459   0.463   4.986   3.055 -0.9932  1.0840  0.0218
 4214SOL     OW12460   4.733   4.384   2.472  0.2509  0.3305  0.3621
 4214SOL    HW112461   4.785   4.398   2.556 -0.7518 -1.0794  1.2666
 4214SOL    HW212462   4.638   4.409   2.487  0.5372  2.7354 -1.2229
 4215SOL     OW12463   3.459   4.654   4.526  0.2644  0.2275 -0.1324
 4215SOL    HW112464   3.543   4.606   4.500  0.0566 -1.1532  1.5869
 4215SOL    HW212465   3.482   4.739   4.573  0.6845  0.2100 -0.3046
 4216SOL     OW12466   5.054   0.236   2.839 -0.1063 -0.5689  0.3020
 4216SOL    HW112467   5.104   0.154   2.814  0.2196 -0.7659  1.5525
 4216SOL    HW212468   4.989   0.215   2.912 -0.2428  0.2199  0.4208
 4217SOL     OW12469   4.437   4.919   1.147 -0.2709  0.8217  0.1459
 4217SOL    HW112470   4.505   4.846   1.145  0.4704  1.5048 -0.3762
 4217SOL    HW212471   4.417   4.949   1.054 -1.1179  0.7928  0.3119
 4218SOL     OW12472   3.882   4.851   2.921  0.5818 -0.7684  0.3544
 4218SOL    HW112473   3.863   4.884   3.013  0.4268  0.8512 -0.2425
 4218SOL    HW212474   3.826   4.770   2.903 -0.0209 -0.5974  1.3599
 4219SOL     OW12475   4.567   4.936   2.175  0.8023 -0.3551 -0.5660
 4219SOL    HW112476   4.573   5.011   2.240 -0.8740 -0.7714  0.1141
 4219SOL    HW212477   4.480   4.941   2.125  0.2497 -2.2798  0.1028
 4220SOL     OW12478   4.199   3.808   4.927 -0.4425  0.0380  0.4139
 4220SOL    HW112479   4.131   3.754   4.977  0.2731 -0.6607  0.6364
 4220SOL    HW212480   4.247   3.750   4.862 -0.8844  0.7920 -0.6138
 4221SOL     OW12481   4.970   4.294   1.418  0.0416 -0.1213  0.1343
 4221SOL    HW112482   5.023   4.279   1.502 -1.0122 -0.2201  0.8065
 4221SOL    HW212483   4.985   4.387   1.386 -1.4273  0.7718  1.8569
 4222SOL     OW12484   3.325   3.350   2.101  0.0399 -0.0325  0.2824
 4222SOL    HW112485   3.240   3.350   2.048 -0.4831 -0.7883  1.0919
 4222SOL    HW212486   3.403   3.357   2.039 -0.5788 -0.2120 -0.5331
 4223SOL     OW12487   3.746   4.845   4.591 -0.6434 -0.2400 -0.3053
 4223SOL    HW112488   3.834   4.889   4.608 -0.6092 -0.3406 -0.2253
 4223SOL    HW212489   3.708   4.811   4.677 -0.8520 -0.0238 -0.3132
 4224SOL     OW12490   4.617   5.027   3.588 -0.3811 -0.0809 -0.1385
 4224SOL    HW112491   4.691   5.091   3.566 -0.0393 -0.5061 -0.2295
 4224SOL    HW212492   4.654   4.935   3.598 -0.7752 -0.1676  0.6096
 4225SOL     OW12493   3.803   4.063   3.352 -0.4916 -0.6803  0.0392
 4225SOL    HW112494   3.801   4.033   3.447  1.3884  0.9944  0.6737
 4225SOL    HW212495   3.897   4.077   3.323 -1.1145  1.5945 -1.1364
 4226SOL     OW12496   3.794   0.746   2.043  0.1038  0.1083  0.0686
 4226SOL    HW112497   3.697   0.723   2.035 -0.3125  1.8806 -0.5798
 4226SOL    HW212498   3.849   0.678   1.996 -0.8959 -0.4802 -0.2770
 4227SOL     OW12499   4.480   4.691   4.190 -0.1242  0.2914 -0.3629
 4227SOL    HW112500   4.575   4.661   4.194 -0.0350  0.6931  0.8525
 4227SOL    HW212501   4.464   4.739   4.103  0.4829 -0.6931 -1.0406
 4228SOL     OW12502   3.502   4.050   3.618 -0.3286  0.0490  0.2563
 4228SOL    HW112503   3.492   4.136   3.668 -0.4149 -0.0721  0.4476
 4228SOL    HW212504   3.424   3.991   3.637  0.5451 -0.7624  1.4798
 4229SOL     OW12505   3.849   4.634   3.489  0.0035 -0.1450 -0.0240
 4229SOL    HW112506   3.850   4.552   3.545 -1.4227  0.7814  1.4308
 4229SOL    HW212507   3.755   4.657   3.465  0.4231  0.7545 -0.8990
 4230SOL     OW12508   4.261   4.768   0.590  0.9262 -0.2588 -0.1368
 4230SOL    HW112509   4.237   4.671   0.590  0.2439 -0.1403  1.9094
 4230SOL    HW212510   4.190   4.820   0.638  0.3682  1.5475 -2.7323
 4231SOL     OW12511   3.979   3.458   3.385 -0.0095 -0.2855 -0.2595
 4231SOL    HW112512   4.059   3.512   3.413 -0.3082 -0.3849  0.8088
 4231SOL    HW212513   4.006   3.363   3.374  0.5897  0.0808 -2.4467
 4232SOL     OW12514   4.026   3.837   1.901 -0.2718  0.0848  0.0719
 4232SOL    HW112515   4.017   3.797   1.992 -2.6081 -0.5829 -0.3996
 4232SOL    HW212516   3.985   3.777   1.833 -4.0529  3.1144 -0.6760
 4233SOL     OW12517   3.838   4.961   3.159  0.1600 -0.1946 -0.1295
 4233SOL    HW112518   3.757   4.972   3.217  1.0390 -0.0877  1.1241
 4233SOL    HW212519   3.889   5.047   3.155 -0.1821 -0.0353 -1.5597
 4234SOL     OW12520   0.437   0.342   2.652  0.3282  0.3768 -0.3657
 4234SOL    HW112521   0.514   0.320   2.592 -0.1923  0.4243 -1.0562
 4234SOL    HW212522   0.395   0.428   2.623 -1.9006 -1.1152 -1.9712
 4235SOL     OW12523   4.271   4.398   2.306 -0.0674 -0.0308  0.5703
 4235SOL    HW112524   4.189   4.402   2.249  0.1982  2.6127  0.2452
 4235SOL    HW212525   4.344   4.350   2.257 -1.3005 -2.2519  0.7909
 4236SOL     OW12526   4.877   4.557   2.310  0.0315 -0.5216  0.1172
 4236SOL    HW112527   4.832   4.493   2.373 -2.1606 -0.3480 -1.1467
 4236SOL    HW212528   4.821   4.640   2.301  1.0292  0.0659 -0.9355
 4237SOL     OW12529   3.381   0.764   4.072  0.3569 -0.0383  0.2069
 4237SOL    HW112530   3.360   0.862   4.070  1.6155  0.2221 -1.0563
 4237SOL    HW212531   3.459   0.748   4.132  0.2588 -0.2429  0.2788
 4238SOL     OW12532   4.015   4.882   2.234 -0.3070  0.2781  0.0768
 4238SOL    HW112533   4.007   4.915   2.140 -0.6061 -0.6207 -0.2128
 4238SOL    HW212534   3.994   4.785   2.238 -0.9381  0.4463  1.1823
 4239SOL     OW12535   0.953   4.890   1.809 -0.1214  0.1420  0.8800
 4239SOL    HW112536   0.897   4.947   1.748 -1.7883 -1.8123  0.4467
 4239SOL    HW212537   0.942   4.921   1.903 -1.3145  0.3212  0.6979
 4240SOL     OW12538   4.981   4.281   2.941 -0.4670 -0.5601 -0.1656
 4240SOL    HW112539   4.971   4.352   2.871 -0.3547  0.4644  0.8289
 4240SOL    HW212540   5.078   4.263   2.958 -0.4946 -1.1179 -0.5655
 4241SOL     OW12541   0.492   4.645   0.649  0.1092  0.0961 -0.2879
 4241SOL    HW112542   0.589   4.623   0.639 -0.1292 -0.3587 -1.7535
 4241SOL    HW212543   0.436   4.567   0.621 -0.7092  1.4090 -2.5996
 4242SOL     OW12544   4.108   0.575   3.316  0.2800 -0.5274  0.0792
 4242SOL    HW112545   4.069   0.511   3.382  1.7099 -1.3082  0.2197
 4242SOL    HW212546   4.047   0.584   3.238 -0.9850 -0.3304  1.0725
 4243SOL     OW12547   5.029   0.650   2.458 -0.1125 -0.3015  0.1590
 4243SOL    HW112548   5.059   0.562   2.421 -1.0203 -1.1083  1.2738
 4243SOL    HW212549   5.010   0.641   2.556 -1.0491  0.9257  0.1168
 4244SOL     OW12550   4.134   3.241   3.070  0.0869 -0.1855  0.0786
 4244SOL    HW112551   4.088   3.156   3.044 -0.1666 -0.0248 -0.0005
 4244SOL    HW212552   4.119   3.310   2.999  0.8900 -0.2879 -0.2067
 4245SOL     OW12553   3.756   0.062   4.003  0.1692 -0.1624 -0.0637
 4245SOL    HW112554   3.708   0.132   4.056 -1.9758 -1.6575  0.0886
 4245SOL    HW212555   3.698  -0.019   3.994  2.3157 -1.7275 -0.7453
 4246SOL     OW12556   4.875   3.934   3.805 -0.0929  0.3645  0.4854
 4246SOL    HW112557   4.857   3.840   3.833  1.6689 -0.5095 -1.0463
 4246SOL    HW212558   4.967   3.960   3.834  0.6331  0.4698 -1.6893
 4247SOL     OW12559   3.987   3.227   2.766 -0.2244  0.2331 -0.8135
 4247SOL    HW112560   3.914   3.227   2.834  0.4891 -0.5942 -0.0223
 4247SOL    HW212561   4.005   3.321   2.735 -2.0318  0.3916 -1.5014
 4248SOL     OW12562   0.327   4.039   3.402  0.3305 -0.0539 -0.5788
 4248SOL    HW112563   0.350   3.949   3.367 -1.1253  0.4530 -3.0397
 4248SOL    HW212564   0.259   4.030   3.476  0.8836 -0.9896 -0.1738
 4249SOL     OW12565   0.161   4.398   2.498 -0.1286 -0.4779 -0.1124
 4249SOL    HW112566   0.141   4.462   2.424 -0.6709 -0.6667 -0.1317
 4249SOL    HW212567   0.233   4.334   2.469  0.2217 -0.0557 -0.1894
 4250SOL     OW12568   3.518   4.182   3.369  0.0008  0.2246 -0.0930
 4250SOL    HW112569   3.519   4.124   3.450  0.0468 -1.4517 -1.2353
 4250SOL    HW212570   3.611   4.193   3.335 -0.0576  0.6184 -0.1278
 4251SOL     OW12571   1.258   0.939   4.009 -0.4503 -0.3478  0.7152
 4251SOL    HW112572   1.318   0.876   3.959 -0.5050 -0.6111  0.9760
 4251SOL    HW212573   1.194   0.886   4.066 -0.7375 -0.0630  0.6591
 4252SOL     OW12574   1.418   0.768   3.077  0.1158 -0.2308  0.0822
 4252SOL    HW112575   1.375   0.769   3.167  2.3303 -3.3273  1.3612
 4252SOL    HW212576   1.518   0.770   3.088  0.4585  1.1662 -2.4572
 4253SOL     OW12577   0.566   4.163   2.853  0.2430 -0.2825 -0.1456
 4253SOL    HW112578   0.629   4.240   2.861 -0.9443  0.5259  2.3918
 4253SOL    HW212579   0.618   4.078   2.847  1.6157  0.4475  0.8265
 4254SOL     OW12580   4.528   4.257   0.914 -0.1709 -0.4857  0.5302
 4254SOL    HW112581   4.561   4.165   0.933  0.6484  0.0644  1.9311
 4254SOL    HW212582   4.603   4.314   0.881  0.1122  0.4818  2.6829
 4255SOL     OW12583   3.809   0.360   4.143  0.4648 -0.7280 -0.0124
 4255SOL    HW112584   3.750   0.291   4.184  2.5178 -2.5742  0.0463
 4255SOL    HW212585   3.820   0.437   4.206 -2.1597 -0.0807 -0.2302
 4256SOL     OW12586   0.092   4.566   2.255 -0.2831 -0.0445  0.4332
 4256SOL    HW112587  -0.006   4.588   2.258 -0.2266  0.5148 -1.0191
 4256SOL    HW212588   0.145   4.650   2.260  0.0535 -0.1532 -0.9368
 4257SOL     OW12589   4.372   4.699   1.914 -0.0062  0.5577  0.1434
 4257SOL    HW112590   4.464   4.662   1.929 -0.0325  0.4910  0.1384
 4257SOL    HW212591   4.307   4.650   1.972 -0.2250 -0.1878 -0.7193
 4258SOL     OW12592   3.199   3.462   1.239  0.3728 -0.0069 -0.3752
 4258SOL    HW112593   3.141   3.508   1.306  2.0403  0.5133  0.7821
 4258SOL    HW212594   3.189   3.505   1.150 -0.9565  0.0947 -0.1917
 4259SOL     OW12595   4.238   4.331   1.992  0.3443 -0.3898  0.1806
 4259SOL    HW112596   4.199   4.355   1.903  1.9702  0.8820 -0.2373
 4259SOL    HW212597   4.183   4.259   2.035 -0.6196 -0.8280 -1.7169
 4260SOL     OW12598   3.889   3.720   4.073  0.2762  0.0306 -0.0225
 4260SOL    HW112599   3.965   3.741   4.011 -0.8333  0.6211 -1.2332
 4260SOL    HW212600   3.897   3.775   4.156  1.0260  0.2906 -0.2647
 4261SOL     OW12601   0.138   1.034   1.774  0.3847  0.0608 -0.4552
 4261SOL    HW112602   0.115   0.979   1.854  1.8551  1.3278  0.9028
 4261SOL    HW212603   0.234   1.021   1.751  0.5329  1.3842 -0.6452
 4262SOL     OW12604   4.463   4.578   1.227 -0.2089 -0.7801  0.5973
 4262SOL    HW112605   4.457   4.642   1.304  2.6000  0.1989  0.0880
 4262SOL    HW212606   4.406   4.611   1.152  2.7491  2.4791 -0.4697
 4263SOL     OW12607   0.052   4.076   2.708  0.1615 -0.1986  0.2717
 4263SOL    HW112608   0.001   4.142   2.651 -1.0382  0.3396  1.9001
 4263SOL    HW212609   0.132   4.122   2.747 -0.7908  0.4021  1.5780
 4264SOL     OW12610   1.942   4.263   4.062 -0.0639  0.3073  0.1797
 4264SOL    HW112611   1.891   4.347   4.079 -2.0113 -1.0816  1.5707
 4264SOL    HW212612   1.977   4.226   4.148 -1.5602 -1.6728  0.0075
 4265SOL     OW12613   3.048   4.050   0.649  0.1845 -0.3656 -0.3627
 4265SOL    HW112614   3.041   4.019   0.554 -1.7514  0.2868 -0.4719
 4265SOL    HW212615   3.091   3.978   0.704  0.8658 -0.9583 -1.6212
 4266SOL     OW12616   2.587   3.997   4.726 -0.2712  0.1859  0.5693
 4266SOL    HW112617   2.550   4.014   4.818 -1.7274 -0.3677  0.1136
 4266SOL    HW212618   2.584   3.899   4.706 -1.5541  0.4452 -0.6814
 4267SOL     OW12619   3.715   0.577   1.078  0.4190 -0.2713 -0.5804
 4267SOL    HW112620   3.635   0.560   1.022  1.7788 -2.3822 -2.0218
 4267SOL    HW212621   3.761   0.660   1.046 -0.1269 -0.1191 -0.9769
 4268SOL     OW12622   3.730   0.616   0.290  0.4183  0.5434  0.2768
 4268SOL    HW112623   3.745   0.704   0.243 -1.1603  0.4397 -0.4802
 4268SOL    HW212624   3.636   0.587   0.277  0.5078 -0.5442  1.8083
 4269SOL     OW12625   3.503   1.524   0.232  0.2350 -0.6570  0.7914
 4269SOL    HW112626   3.572   1.478   0.288  1.7958 -1.4586 -1.6150
 4269SOL    HW212627   3.510   1.490   0.138 -1.8629  1.0423 -0.0412
 4270SOL     OW12628   3.969   4.407   4.919 -0.1892  0.3744 -0.5810
 4270SOL    HW112629   4.024   4.491   4.916  1.3880 -0.6515 -1.5126
 4270SOL    HW212630   4.009   4.338   4.859 -1.5149 -1.0341  0.0721
 4271SOL     OW12631   4.281   4.062   4.843 -0.4675  0.1269  0.0163
 4271SOL    HW112632   4.318   4.124   4.912  0.8493 -0.8455  0.2199
 4271SOL    HW212633   4.240   3.983   4.889 -1.3864  0.4273 -0.2658
 4272SOL     OW12634   4.425   3.794   0.280 -0.4162 -0.1723 -0.4446
 4272SOL    HW112635   4.337   3.778   0.325 -1.2065 -0.1007 -1.9185
 4272SOL    HW212636   4.410   3.839   0.192  1.1636  0.5996 -0.3607
 4273SOL     OW12637   4.762   4.971   5.050 -0.6712  0.2999  0.0131
 4273SOL    HW112638   4.754   4.897   5.117 -0.7163  1.0319  0.8240
 4273SOL    HW212639   4.792   4.933   4.962 -1.3849 -0.7886  0.2123
 4274SOL     OW12640   3.744   4.481   0.566  0.1347 -0.2017 -0.2154
 4274SOL    HW112641   3.804   4.462   0.643  0.3798 -0.6092 -0.4962
 4274SOL    HW212642   3.693   4.566   0.582  2.6490  1.5754 -1.0709
 4275SOL     OW12643   3.685   5.034   5.084 -0.1154  0.0711  0.5444
 4275SOL    HW112644   3.743   4.960   5.119 -0.5077 -0.5921 -0.1852
 4275SOL    HW212645   3.728   5.074   5.004 -1.0636 -1.0249 -0.5485
 4276SOL     OW12646   4.072   4.202   0.682  0.1634  0.4107 -0.3484
 4276SOL    HW112647   4.035   4.159   0.764  2.0056 -1.6181 -0.4955
 4276SOL    HW212648   4.170   4.216   0.693 -0.0631  3.0261 -1.0452
 4277SOL     OW12649   1.150   0.340   4.140  0.0295 -0.5118  0.5352
 4277SOL    HW112650   1.069   0.316   4.086  0.9924 -1.4113 -0.5684
 4277SOL    HW212651   1.219   0.382   4.081  0.6905 -0.4900  1.2982
 4278SOL     OW12652   4.123   4.321   0.042  0.2792  0.1807  0.0264
 4278SOL    HW112653   4.047   4.366  -0.004  0.2402 -0.0395 -0.1241
 4278SOL    HW212654   4.091   4.278   0.126 -0.1926 -1.6630 -1.0504
 4279SOL     OW12655   4.798   3.560   0.208  0.0167  0.3649  0.0131
 4279SOL    HW112656   4.881   3.505   0.201  1.4798  2.4647  0.0849
 4279SOL    HW212657   4.750   3.538   0.293  0.7523 -0.5373  0.2055
 4280SOL     OW12658   3.945   0.629   4.250  0.2594  0.5404 -0.6495
 4280SOL    HW112659   4.034   0.622   4.295  0.0210 -1.4858 -0.4059
 4280SOL    HW212660   3.958   0.667   4.158  1.1821  1.5151 -0.1375
 4281SOL     OW12661   3.924   3.909   4.677  0.3166  0.0526 -0.3489
 4281SOL    HW112662   3.977   3.992   4.691  0.9828 -0.8237  3.2960
 4281SOL    HW212663   3.880   3.882   4.763 -4.6490 -0.3388 -2.6359
 4282SOL     OW12664   3.072   4.491   4.123  0.3940  0.7073  0.1451
 4282SOL    HW112665   3.168   4.509   4.145  0.5652  1.4654 -1.0990
 4282SOL    HW212666   3.055   4.393   4.125  0.9229  0.6196  1.3785
 4283SOL     OW12667   4.281   4.920   4.504  0.3498 -0.0061  0.2911
 4283SOL    HW112668   4.372   4.895   4.469  0.2701 -1.4262  1.0726
 4283SOL    HW212669   4.258   5.011   4.470  1.7616  0.0960 -0.5027
 4284SOL     OW12670   3.065   4.325   4.439  0.4307  0.6027 -0.0310
 4284SOL    HW112671   3.049   4.300   4.344  0.3164 -0.2631  0.2045
 4284SOL    HW212672   3.141   4.389   4.445 -0.2819  1.5526 -0.8005
 4285SOL     OW12673   3.691   0.368   3.885 -0.4052 -0.9457 -0.1961
 4285SOL    HW112674   3.732   0.372   3.976  1.7218  0.4888 -1.1153
 4285SOL    HW212675   3.716   0.451   3.834 -2.3428 -1.2566 -1.7755
 4286SOL     OW12676   0.272   3.874   0.549  0.0461 -0.1212  0.2015
 4286SOL    HW112677   0.283   3.926   0.465  0.4830 -1.9412 -0.9093
 4286SOL    HW212678   0.216   3.927   0.614  1.4839  2.2317 -0.3641
 4287SOL     OW12679   4.571   4.035   4.431  0.1967 -0.5290 -0.2436
 4287SOL    HW112680   4.502   4.102   4.407  0.4597  0.2260  0.9867
 4287SOL    HW212681   4.641   4.031   4.359 -0.5054 -0.4469 -0.9368
 4288SOL     OW12682   3.138   3.028   4.961  0.5068  0.0452 -0.5506
 4288SOL    HW112683   3.137   3.118   5.005  0.6853 -0.8105  1.2709
 4288SOL    HW212684   3.206   2.970   5.005 -0.4404 -1.3700 -0.8877
 4289SOL     OW12685   4.766   4.068   3.570 -0.4868 -0.5492 -0.5689
 4289SOL    HW112686   4.851   4.079   3.518  0.0101  2.4369  0.6417
 4289SOL    HW212687   4.782   4.005   3.646  0.6838 -0.0164 -0.3489
 4290SOL     OW12688   4.094   0.320   3.762  0.1102  0.1644  0.2280
 4290SOL    HW112689   4.079   0.345   3.666 -0.1270 -0.4132  0.1045
 4290SOL    HW212690   4.157   0.242   3.766  0.3354  0.3659  0.5561
 4291SOL     OW12691   3.331   4.565   4.104 -0.3110 -0.0726 -0.4076
 4291SOL    HW112692   3.401   4.502   4.136 -0.4180 -0.7697 -1.5050
 4291SOL    HW212693   3.364   4.659   4.116  0.1054 -0.3339  0.6441
 4292SOL     OW12694   0.428   3.751   3.401  0.3479 -0.0794  0.2974
 4292SOL    HW112695   0.334   3.745   3.367 -0.2636  2.1452  1.3717
 4292SOL    HW212696   0.480   3.672   3.370 -1.7745 -1.2014 -0.6250
 4293SOL     OW12697   0.633   4.568   4.169  0.1849  0.3628  0.5308
 4293SOL    HW112698   0.594   4.639   4.228 -1.2224 -0.7586  0.9913
 4293SOL    HW212699   0.733   4.579   4.166  0.2167  0.9892  2.3780
 4294SOL     OW12700   3.724   4.459   4.788 -0.2813  0.1590  0.3520
 4294SOL    HW112701   3.798   4.413   4.837  0.2270 -0.4353 -0.9185
 4294SOL    HW212702   3.747   4.555   4.775 -0.4265  0.3222  1.2642
 4295SOL     OW12703   4.296   4.488   3.587 -0.7116  0.0262  0.3001
 4295SOL    HW112704   4.336   4.542   3.514 -0.9091 -2.1919 -1.5744
 4295SOL    HW212705   4.217   4.437   3.552 -1.1388 -0.7411  2.2078
 4296SOL     OW12706   3.795   2.790   0.104 -0.2583  0.8296 -0.5076
 4296SOL    HW112707   3.831   2.832   0.188 -1.3856  0.2939  0.2812
 4296SOL    HW212708   3.747   2.860   0.050 -1.8163  0.6955  0.6208
 4297SOL     OW12709   3.425   3.717   4.747 -0.2923 -0.2443  0.1971
 4297SOL    HW112710   3.389   3.810   4.737  0.0459 -0.0028  1.1299
 4297SOL    HW212711   3.351   3.651   4.732 -0.9292  0.2219  1.1825
 4298SOL     OW12712   0.140   3.620   0.207  0.3342  0.5737 -0.1835
 4298SOL    HW112713   0.123   3.716   0.185 -0.6303  1.2724  3.0489
 4298SOL    HW212714   0.230   3.611   0.250 -0.6756  0.6457  2.1271
 4299SOL     OW12715   5.025   3.329   3.711 -0.1750  0.2494  0.1044
 4299SOL    HW112716   5.034   3.231   3.696  0.0524  0.1717  0.7061
 4299SOL    HW212717   5.069   3.354   3.798 -0.6238  0.8072  0.1820
 4300SOL     OW12718   4.679   0.366   3.725  0.2745  1.0243  0.1784
 4300SOL    HW112719   4.603   0.341   3.665  1.2978 -0.5554 -0.5218
 4300SOL    HW212720   4.675   0.464   3.744 -1.4579  1.1315 -0.4833
 4301SOL     OW12721   4.464   4.728   0.021  0.5589 -0.3399  0.2457
 4301SOL    HW112722   4.481   4.793   0.095  0.7389  0.4339 -0.4605
 4301SOL    HW212723   4.384   4.672   0.042  0.1888  0.3607  0.6987
 4302SOL     OW12724   4.316   4.958   4.793  0.2838  0.3302 -0.4673
 4302SOL    HW112725   4.312   4.969   4.694 -1.3310 -0.6529 -0.5396
 4302SOL    HW212726   4.228   4.983   4.833  0.9084  0.6769  0.7328
 4303SOL     OW12727   3.847   3.263   4.934  0.2703 -0.2412 -0.2919
 4303SOL    HW112728   3.908   3.203   4.882  0.4644 -0.3875  0.0994
 4303SOL    HW212729   3.797   3.323   4.872  0.4980 -0.4189 -0.6442
 4304SOL     OW12730   4.971   0.083   3.214  0.4227  0.3160  0.2206
 4304SOL    HW112731   4.908   0.152   3.250  1.4326 -0.0614  2.9316
 4304SOL    HW212732   5.013   0.033   3.290  1.9604 -1.2858 -1.5786
 4305SOL     OW12733   4.471   0.838   1.056 -0.0260  0.3228  0.0566
 4305SOL    HW112734   4.518   0.904   0.996 -0.5309 -0.0697 -0.7778
 4305SOL    HW212735   4.490   0.745   1.025 -0.1997  0.1089  0.5832
 4306SOL     OW12736   0.738   3.364   4.627  0.4798 -0.5099 -0.4037
 4306SOL    HW112737   0.790   3.328   4.705  0.1869  1.7425  0.9211
 4306SOL    HW212738   0.745   3.464   4.625 -0.8001 -0.3928 -2.3878
 4307SOL     OW12739   0.752   4.367   4.434  0.3179 -0.4607  0.0964
 4307SOL    HW112740   0.852   4.363   4.442  0.6978  1.6539 -2.2786
 4307SOL    HW212741   0.718   4.442   4.491  0.3801  0.2116 -0.7298
 4308SOL     OW12742   2.824   4.688   4.838  0.4861 -0.1331 -0.0994
 4308SOL    HW112743   2.773   4.602   4.838  1.9369 -1.0508  1.0177
 4308SOL    HW212744   2.788   4.749   4.907  1.1162 -0.9488  0.9857
 4309SOL     OW12745   4.027   4.163   4.403  0.2659 -0.5265  0.0729
 4309SOL    HW112746   4.072   4.176   4.315  0.4657 -0.4397  0.1869
 4309SOL    HW212747   3.953   4.230   4.413 -0.9189 -1.6564 -0.7772
 4310SOL     OW12748   2.728   4.295   4.232  0.2638  0.0393  0.0336
 4310SOL    HW112749   2.729   4.236   4.313 -0.1643 -0.3356 -0.2309
 4310SOL    HW212750   2.715   4.239   4.150  2.8028  0.1537 -0.5338
 4311SOL     OW12751   4.455   4.809   3.941 -0.2796  0.3193 -0.0442
 4311SOL    HW112752   4.476   4.902   3.910  0.6303 -0.0379 -0.5159
 4311SOL    HW212753   4.401   4.762   3.871 -0.6572  0.4601  0.1523
 4312SOL     OW12754   4.143   4.579   4.821  0.2621 -0.2372 -0.3643
 4312SOL    HW112755   4.238   4.567   4.849 -0.2915 -1.2213  1.2159
 4312SOL    HW212756   4.135   4.563   4.723  1.6057 -0.9632 -0.3817
 4313SOL     OW12757   0.458   4.186   2.126 -0.5045  0.4885 -0.4453
 4313SOL    HW112758   0.442   4.152   2.219  3.2507  2.2578  1.0318
 4313SOL    HW212759   0.435   4.283   2.121 -0.5224  0.4467 -1.3502
 4314SOL     OW12760   4.705   4.289   5.069  0.4880 -0.2360 -0.1224
 4314SOL    HW112761   4.656   4.236   5.138 -0.1967  1.7279  0.9946
 4314SOL    HW212762   4.708   4.238   4.983 -2.2728 -1.0551  0.1871
 4315SOL     OW12763   3.931   3.653   4.542  0.5469 -0.4931  0.3608
 4315SOL    HW112764   3.892   3.721   4.603 -1.2088 -0.7548 -0.4166
 4315SOL    HW212765   3.904   3.673   4.448  0.3089 -2.0470  0.0704
 4316SOL     OW12766   0.721   3.153   5.067  0.6067  0.4886  0.3932
 4316SOL    HW112767   0.733   3.251   5.081 -3.5429  1.0345  1.3586
 4316SOL    HW212768   0.652   3.137   4.996 -1.1471 -1.5549  2.3854
 4317SOL     OW12769   3.328   0.515   3.145 -0.6321  0.2532 -0.7010
 4317SOL    HW112770   3.426   0.512   3.167 -1.0358  3.7840  2.5561
 4317SOL    HW212771   3.279   0.452   3.205 -0.6477  1.5412  0.7037
 4318SOL     OW12772   0.521   4.825   4.242  0.0402  0.0181 -0.1693
 4318SOL    HW112773   0.439   4.822   4.299 -0.3535 -3.6679 -0.6953
 4318SOL    HW212774   0.595   4.869   4.292 -1.5868  1.4043  1.1700
 4319SOL     OW12775   3.600   2.984   0.281  0.1750 -0.3586  0.3203
 4319SOL    HW112776   3.501   2.968   0.283  0.0727  0.1522 -0.3319
 4319SOL    HW212777   3.637   2.974   0.374 -0.3056 -1.6196  0.4074
 4320SOL     OW12778   2.488   4.621   3.936  0.0713 -0.1787  0.4367
 4320SOL    HW112779   2.501   4.713   3.900 -0.4720 -0.7135 -1.2376
 4320SOL    HW212780   2.558   4.560   3.899 -0.8041 -0.8532 -0.1602
 4321SOL     OW12781   4.232   0.594   4.660  0.4442  0.4452 -0.5378
 4321SOL    HW112782   4.316   0.592   4.714  1.3446  0.8218 -1.8807
 4321SOL    HW212783   4.225   0.680   4.611 -0.5790  0.2921 -0.7006
 4322SOL     OW12784   2.979   3.633   3.201 -0.1468  0.3793  0.5504
 4322SOL    HW112785   2.997   3.724   3.164 -0.5564  1.3089  2.4967
 4322SOL    HW212786   3.065   3.590   3.228  0.3205 -0.9117 -2.6131
 4323SOL     OW12787   4.440   4.136   0.392 -0.8674 -0.2282  0.3733
 4323SOL    HW112788   4.361   4.074   0.389 -0.2628 -1.1294  1.8148
 4323SOL    HW212789   4.524   4.083   0.400 -0.4216  0.6885  3.1747
 4324SOL     OW12790   3.743   1.415   0.335 -0.3936 -0.0553  0.2524
 4324SOL    HW112791   3.820   1.419   0.271 -0.1128  2.1486  0.6587
 4324SOL    HW212792   3.778   1.409   0.429 -0.7817 -1.5592  0.3221
 4325SOL     OW12793   4.213   3.530   4.570  0.0066  0.8272 -0.5325
 4325SOL    HW112794   4.142   3.601   4.575  0.9112  1.8057 -1.1599
 4325SOL    HW212795   4.178   3.451   4.521 -0.7063  1.2249 -0.6734
 4326SOL     OW12796   5.066   4.726   4.022  0.4814 -0.1209 -0.2707
 4326SOL    HW112797   5.024   4.639   4.047  1.9124 -0.4008  1.3644
 4326SOL    HW212798   5.097   4.772   4.105 -2.3317  3.1344 -0.8119
 4327SOL     OW12799   3.685   4.770   0.383 -0.0456 -0.1450  0.1359
 4327SOL    HW112800   3.657   4.733   0.295 -0.3585  1.8218 -0.6428
 4327SOL    HW212801   3.734   4.856   0.370  0.2359  0.0063  1.8696
 4328SOL     OW12802   1.976   3.485   2.990 -0.1524 -0.0955 -0.0875
 4328SOL    HW112803   1.997   3.428   2.910 -1.1834  0.6782 -0.9433
 4328SOL    HW212804   1.879   3.506   2.990 -0.0944  0.2025  1.2052
 4329SOL     OW12805   4.545   0.276   2.430 -0.0547  0.4467  0.9736
 4329SOL    HW112806   4.509   0.256   2.339 -1.7320  0.8514  1.4943
 4329SOL    HW212807   4.625   0.219   2.449 -0.7553 -0.9308 -0.0658
 4330SOL     OW12808   0.200   4.229   3.121  0.1291  0.0661  0.3043
 4330SOL    HW112809   0.249   4.268   3.200  2.3757  0.1717 -1.0451
 4330SOL    HW212810   0.199   4.130   3.129 -0.4642  0.1144  0.9013
 4331SOL     OW12811   4.345   0.246   4.942 -0.0671  0.3531  0.0796
 4331SOL    HW112812   4.400   0.301   5.005 -2.4260  0.5485  2.1440
 4331SOL    HW212813   4.363   0.149   4.959  1.0415  0.4134 -0.6536
 4332SOL     OW12814   3.622   4.616   0.140  0.2143 -0.4451  0.0741
 4332SOL    HW112815   3.590   4.655   0.053  3.1495  1.6203 -0.2244
 4332SOL    HW212816   3.582   4.525   0.152 -3.0686  0.5958 -1.6524
 4333SOL     OW12817   3.273   4.598   4.936 -0.1027 -0.0862 -0.2195
 4333SOL    HW112818   3.339   4.543   4.884  0.7124 -0.4134  1.0869
 4333SOL    HW212819   3.197   4.624   4.877  1.6562  1.1481 -2.0805
 4334SOL     OW12820   3.408   4.535   3.089  0.0800 -0.6637 -0.2062
 4334SOL    HW112821   3.444   4.621   3.126  0.5195 -1.0641  0.3050
 4334SOL    HW212822   3.483   4.484   3.046 -0.2024 -0.7481 -0.6023
 4335SOL     OW12823   4.921   3.644   4.261 -0.1429 -0.0247  0.1040
 4335SOL    HW112824   4.835   3.596   4.242  0.1355  0.0815 -1.6069
 4335SOL    HW212825   4.975   3.648   4.177 -0.0237  3.0527  0.2446
 4336SOL     OW12826   0.404   3.332   3.479 -0.4364  0.0697  0.6560
 4336SOL    HW112827   0.334   3.316   3.410 -0.1204 -0.4947  0.4512
 4336SOL    HW212828   0.475   3.392   3.441  0.1720 -0.9209  0.1705
 4337SOL     OW12829   4.639   0.902   3.824  0.3081 -0.1390 -0.0019
 4337SOL    HW112830   4.611   0.874   3.916 -0.0324  1.3525  0.3705
 4337SOL    HW212831   4.585   0.981   3.795  0.3716 -0.6268 -1.5209
 4338SOL     OW12832   0.535   4.715   3.521  0.1714 -0.2557 -0.6861
 4338SOL    HW112833   0.442   4.741   3.549 -0.7445 -0.8483 -2.9742
 4338SOL    HW212834   0.588   4.689   3.602 -1.2170  1.3408  0.8268
 4339SOL     OW12835   3.005   4.599   4.490  0.3196  0.0618 -0.1273
 4339SOL    HW112836   2.955   4.655   4.424 -0.4873 -0.0849  0.3480
 4339SOL    HW212837   3.019   4.508   4.452 -0.6033 -0.1852  0.0890
 4340SOL     OW12838   3.015   3.322   4.114 -0.0515  0.1927  0.2593
 4340SOL    HW112839   2.934   3.379   4.130 -1.0337 -1.2931  0.8054
 4340SOL    HW212840   2.993   3.226   4.135  2.1156 -0.1305  1.3556
 4341SOL     OW12841   0.165   4.215   3.764 -0.1326  0.1200 -0.6322
 4341SOL    HW112842   0.231   4.289   3.757  0.5282 -0.3359  0.5393
 4341SOL    HW212843   0.172   4.172   3.854 -1.5370 -0.4034 -0.7482
 4342SOL     OW12844   4.499   0.153   2.714 -0.0536  0.1361 -0.0071
 4342SOL    HW112845   4.581   0.128   2.662 -0.1051  0.1197 -0.0804
 4342SOL    HW212846   4.447   0.223   2.664 -1.1381 -1.2816 -0.9293
 4343SOL     OW12847   0.366   4.300   3.340 -0.8884 -0.0723 -0.9035
 4343SOL    HW112848   0.313   4.352   3.407  0.7200  0.1483  0.2783
 4343SOL    HW212849   0.355   4.202   3.358  0.0393 -0.0096  0.1612
 4344SOL     OW12850   3.605   4.218   4.620  0.2500  0.4511  0.3889
 4344SOL    HW112851   3.649   4.136   4.657  1.3745  0.0899 -1.6203
 4344SOL    HW212852   3.631   4.297   4.676  0.4922 -0.2962  1.3722
 4345CL      CL12853   0.506   0.523   2.230  0.3157  0.0875 -0.0466
   5.08681   5.08681   5.08681
