S  C  A  M  O  R  G
  207
  117GLY      N    1   1.915   1.432   0.964
  117GLY     H1    2   1.878   1.514   1.006
  117GLY     H2    3   2.014   1.430   0.976
  117GLY     H3    4   1.893   1.432   0.866
  117GLY     CA    5   1.856   1.313   1.027
  117GLY    HA1    6   1.878   1.317   1.124
  117GLY    HA2    7   1.757   1.319   1.015
  117GLY      C    8   1.902   1.178   0.973
  117GLY      O    9   1.850   1.073   1.016
  118THR      N   10   1.989   1.180   0.874
  118THR      H   11   2.017   1.269   0.836
  118THR     CA   12   2.047   1.058   0.817
  118THR     HA   13   1.989   0.982   0.848
  118THR     CB   14   2.044   1.057   0.660
  118THR     HB   15   2.057   0.966   0.619
  118THR    OG1   16   2.156   1.140   0.616
  118THR    HG1   17   2.158   1.143   0.516
  118THR    CG2   18   1.910   1.110   0.607
  118THR   HG21   19   1.910   1.109   0.507
  118THR   HG22   20   1.835   1.053   0.641
  118THR   HG23   21   1.896   1.204   0.639
  118THR      C   22   2.187   1.038   0.876
  118THR      O   23   2.232   1.112   0.965
  119ASP      N   24   2.239   0.921   0.843
  119ASP      H   25   2.182   0.856   0.793
  119ASP     CA   26   2.377   0.883   0.876
  119ASP     HA   27   2.396   0.913   0.969
  119ASP     CB   28   2.393   0.731   0.874
  119ASP    HB1   29   2.329   0.691   0.939
  119ASP    HB2   30   2.374   0.697   0.782
  119ASP     CG   31   2.535   0.690   0.912
  119ASP    OD1   32   2.605   0.763   0.983
  119ASP    OD2   33   2.572   0.575   0.880
  119ASP      C   34   2.471   0.954   0.778
  119ASP      O   35   2.518   0.895   0.678
  120VAL      N   36   2.499   1.079   0.809
  120VAL      H   37   2.456   1.118   0.891
  120VAL     CA   38   2.589   1.164   0.731
  120VAL     HA   39   2.556   1.146   0.638
  120VAL     CB   40   2.572   1.313   0.763
  120VAL     HB   41   2.640   1.365   0.710
  120VAL    CG1   42   2.436   1.365   0.718
  120VAL   HG11   43   2.428   1.463   0.741
  120VAL   HG12   44   2.426   1.353   0.620
  120VAL   HG13   45   2.363   1.315   0.765
  120VAL    CG2   46   2.609   1.348   0.905
  120VAL   HG21   47   2.596   1.446   0.920
  120VAL   HG22   48   2.550   1.297   0.968
  120VAL   HG23   49   2.704   1.324   0.922
  120VAL      C   50   2.734   1.120   0.730
  120VAL      O   51   2.810   1.160   0.641
  121GLN      N   52   2.770   1.043   0.831
  121GLN      H   53   2.705   1.028   0.905
  121GLN     CA   54   2.902   0.978   0.839
  121GLN     HA   55   2.971   1.051   0.834
  121GLN     CB   56   2.909   0.905   0.973
  121GLN    HB1   57   2.856   0.955   1.042
  121GLN    HB2   58   2.872   0.812   0.963
  121GLN     CG   59   3.053   0.896   1.017
  121GLN    HG1   60   3.095   0.815   0.976
  121GLN    HG2   61   3.102   0.978   0.986
  121GLN     CD   62   3.062   0.888   1.167
  121GLN    OE1   63   3.137   0.963   1.228
  121GLN    NE2   64   2.988   0.787   1.215
  121GLN   HE21   65   2.937   0.729   1.152
  121GLN   HE22   66   2.985   0.770   1.314
  121GLN      C   67   2.932   0.886   0.721
  121GLN      O   68   3.048   0.867   0.682
  122ALA      N   69   2.830   0.827   0.658
  122ALA      H   70   2.740   0.833   0.701
  122ALA     CA   71   2.839   0.755   0.531
  122ALA     HA   72   2.888   0.671   0.556
  122ALA     CB   73   2.700   0.724   0.478
  122ALA    HB1   74   2.707   0.675   0.392
  122ALA    HB2   75   2.651   0.668   0.545
  122ALA    HB3   76   2.650   0.810   0.464
  122ALA      C   77   2.919   0.829   0.423
  122ALA      O   78   3.003   0.771   0.352
  123TRP      N   79   2.902   0.962   0.424
  123TRP      H   80   2.841   1.002   0.492
  123TRP     CA   81   2.970   1.050   0.328
  123TRP     HA   82   2.958   1.006   0.239
  123TRP     CB   83   2.903   1.187   0.335
  123TRP    HB1   84   2.901   1.220   0.429
  123TRP    HB2   85   2.952   1.252   0.277
  123TRP     CG   86   2.762   1.173   0.285
  123TRP    CD1   87   2.648   1.161   0.359
  123TRP    HD1   88   2.645   1.162   0.459
  123TRP    CD2   89   2.724   1.155   0.148
  123TRP    NE1   90   2.540   1.146   0.277
  123TRP    HE1   91   2.445   1.141   0.308
  123TRP    CE2   92   2.583   1.139   0.148
  123TRP    CE3   93   2.795   1.147   0.028
  123TRP    HE3   94   2.895   1.151   0.027
  123TRP    CZ2   95   2.511   1.118   0.031
  123TRP    HZ2   96   2.412   1.108   0.032
  123TRP    CZ3   97   2.722   1.133  -0.089
  123TRP    HZ3   98   2.770   1.137  -0.176
  123TRP    CH2   99   2.583   1.113  -0.087
  123TRP    HH2  100   2.536   1.094  -0.173
  123TRP      C  101   3.122   1.058   0.339
  123TRP      O  102   3.191   1.094   0.241
  124ILE      N  103   3.174   1.027   0.455
  124ILE      H  104   3.113   1.001   0.530
  124ILE     CA  105   3.319   1.029   0.480
  124ILE     HA  106   3.357   1.051   0.390
  124ILE     CB  107   3.350   1.140   0.586
  124ILE     HB  108   3.449   1.150   0.599
  124ILE    CG1  109   3.296   1.098   0.723
  124ILE   HG11  110   3.203   1.135   0.731
  124ILE   HG12  111   3.292   0.998   0.725
  124ILE    CG2  112   3.302   1.280   0.539
  124ILE   HG21  113   3.324   1.349   0.609
  124ILE   HG22  114   3.349   1.304   0.453
  124ILE   HG23  115   3.204   1.278   0.524
  124ILE     CD  116   3.373   1.144   0.849
  124ILE    HD1  117   3.327   1.110   0.931
  124ILE    HD2  118   3.466   1.107   0.846
  124ILE    HD3  119   3.376   1.244   0.852
  124ILE      C  120   3.386   0.896   0.502
  124ILE      O  121   3.510   0.889   0.513
  125ARG      N  122   3.308   0.790   0.513
  125ARG      H  123   3.209   0.803   0.508
  125ARG     CA  124   3.359   0.653   0.532
  125ARG     HA  125   3.422   0.656   0.610
  125ARG     CB  126   3.248   0.555   0.565
  125ARG    HB1  127   3.167   0.579   0.511
  125ARG    HB2  128   3.278   0.463   0.541
  125ARG     CG  129   3.212   0.560   0.715
  125ARG    HG1  130   3.295   0.558   0.770
  125ARG    HG2  131   3.160   0.643   0.735
  125ARG     CD  132   3.128   0.439   0.748
  125ARG    HD1  133   3.081   0.406   0.666
  125ARG    HD2  134   3.185   0.367   0.786
  125ARG     NE  135   3.028   0.475   0.847
  125ARG     HE  136   3.063   0.484   0.940
  125ARG     CZ  137   2.898   0.499   0.833
  125ARG    NH1  138   2.833   0.469   0.721
  125ARG   HH11  139   2.883   0.427   0.644
  125ARG   HH12  140   2.736   0.488   0.713
  125ARG    NH2  141   2.839   0.555   0.939
  125ARG   HH21  142   2.893   0.575   1.021
  125ARG   HH22  143   2.741   0.576   0.937
  125ARG      C  144   3.431   0.611   0.404
  125ARG      O  145   3.384   0.634   0.291
  126GLY      N  146   3.550   0.557   0.424
  126GLY      H  147   3.586   0.550   0.517
  126GLY     CA  148   3.629   0.506   0.310
  126GLY    HA1  149   3.674   0.421   0.338
  126GLY    HA2  150   3.567   0.487   0.234
  126GLY      C  151   3.733   0.607   0.266
  126GLY      O  152   3.822   0.573   0.185
  127CYS      N  153   3.734   0.722   0.330
  127CYS      H  154   3.669   0.735   0.405
  127CYS     CA  155   3.823   0.833   0.296
  127CYS     HA  156   3.858   0.817   0.204
  127CYS     CB  157   3.745   0.963   0.299
  127CYS    HB1  158   3.721   0.971   0.396
  127CYS    HB2  159   3.815   1.031   0.277
  127CYS     SG  160   3.601   0.982   0.194
  127CYS     HG  161   3.561   1.072   0.207
  127CYS      C  162   3.942   0.838   0.393
  127CYS      O  163   3.921   0.827   0.514
  128ARG      N  164   4.059   0.869   0.339
  128ARG      H  165   4.066   0.875   0.240
  128ARG     CA  166   4.177   0.896   0.422
  128ARG     HA  167   4.166   0.847   0.508
  128ARG     CB  168   4.305   0.830   0.371
  128ARG    HB1  169   4.300   0.825   0.271
  128ARG    HB2  170   4.383   0.887   0.398
  128ARG     CG  171   4.323   0.689   0.428
  128ARG    HG1  172   4.234   0.643   0.434
  128ARG    HG2  173   4.384   0.636   0.368
  128ARG     CD  174   4.383   0.691   0.565
  128ARG    HD1  175   4.335   0.759   0.621
  128ARG    HD2  176   4.374   0.601   0.607
  128ARG     NE  177   4.525   0.726   0.564
  128ARG     HE  178   4.583   0.668   0.507
  128ARG     CZ  179   4.586   0.826   0.628
  128ARG    NH1  180   4.524   0.907   0.715
  128ARG   HH11  181   4.427   0.894   0.734
  128ARG   HH12  182   4.575   0.980   0.761
  128ARG    NH2  183   4.713   0.855   0.597
  128ARG   HH21  184   4.761   0.803   0.527
  128ARG   HH22  185   4.760   0.930   0.645
  128ARG      C  186   4.182   1.044   0.458
  128ARG      O  187   4.198   1.129   0.369
  129LEU      N  188   4.129   1.071   0.577
  129LEU      H  189   4.101   0.995   0.635
  129LEU     CA  190   4.109   1.208   0.627
  129LEU     HA  191   4.128   1.272   0.552
  129LEU     CB  192   3.964   1.234   0.665
  129LEU    HB1  193   3.925   1.146   0.693
  129LEU    HB2  194   3.963   1.296   0.742
  129LEU     CG  195   3.869   1.292   0.562
  129LEU     HG  196   3.870   1.391   0.572
  129LEU    CD1  197   3.911   1.266   0.419
  129LEU   HD11  198   3.845   1.307   0.357
  129LEU   HD12  199   4.001   1.306   0.403
  129LEU   HD13  200   3.916   1.167   0.403
  129LEU    CD2  201   3.731   1.232   0.589
  129LEU   HD21  202   3.666   1.269   0.522
  129LEU   HD22  203   3.735   1.133   0.580
  129LEU   HD23  204   3.702   1.257   0.681
  129LEU      C  205   4.212   1.238   0.737
  129LEU     O1  206   4.173   1.228   0.856
  129LEU     O2  207   4.323   1.268   0.691
   5.90620   6.84510   3.05170
