S  C  A  M  O  R  G
12855
  117GLY      N    1   1.321   3.011   2.897
  117GLY     H1    2   1.284   3.093   2.939
  117GLY     H2    3   1.420   3.009   2.909
  117GLY     H3    4   1.299   3.011   2.799
  117GLY     CA    5   1.262   2.892   2.960
  117GLY    HA1    6   1.284   2.896   3.057
  117GLY    HA2    7   1.163   2.898   2.948
  117GLY      C    8   1.308   2.757   2.906
  117GLY      O    9   1.256   2.652   2.949
  118THR      N   10   1.395   2.759   2.807
  118THR      H   11   1.423   2.848   2.769
  118THR     CA   12   1.453   2.637   2.750
  118THR     HA   13   1.395   2.561   2.781
  118THR     CB   14   1.450   2.636   2.593
  118THR     HB   15   1.463   2.545   2.552
  118THR    OG1   16   1.562   2.719   2.549
  118THR    HG1   17   1.564   2.722   2.449
  118THR    CG2   18   1.316   2.689   2.540
  118THR   HG21   19   1.316   2.688   2.440
  118THR   HG22   20   1.241   2.632   2.574
  118THR   HG23   21   1.302   2.783   2.572
  118THR      C   22   1.593   2.617   2.809
  118THR      O   23   1.638   2.691   2.898
  119ASP      N   24   1.645   2.500   2.776
  119ASP      H   25   1.588   2.435   2.726
  119ASP     CA   26   1.783   2.462   2.809
  119ASP     HA   27   1.802   2.492   2.902
  119ASP     CB   28   1.799   2.310   2.807
  119ASP    HB1   29   1.735   2.270   2.872
  119ASP    HB2   30   1.780   2.276   2.715
  119ASP     CG   31   1.941   2.269   2.845
  119ASP    OD1   32   2.011   2.342   2.916
  119ASP    OD2   33   1.978   2.154   2.813
  119ASP      C   34   1.877   2.533   2.711
  119ASP      O   35   1.924   2.474   2.611
  120VAL      N   36   1.905   2.658   2.742
  120VAL      H   37   1.862   2.697   2.824
  120VAL     CA   38   1.995   2.743   2.664
  120VAL     HA   39   1.962   2.725   2.571
  120VAL     CB   40   1.978   2.892   2.696
  120VAL     HB   41   2.046   2.944   2.643
  120VAL    CG1   42   1.842   2.944   2.651
  120VAL   HG11   43   1.834   3.042   2.674
  120VAL   HG12   44   1.832   2.932   2.553
  120VAL   HG13   45   1.769   2.894   2.698
  120VAL    CG2   46   2.015   2.927   2.838
  120VAL   HG21   47   2.002   3.025   2.853
  120VAL   HG22   48   1.956   2.876   2.901
  120VAL   HG23   49   2.110   2.903   2.855
  120VAL      C   50   2.140   2.699   2.663
  120VAL      O   51   2.216   2.739   2.574
  121GLN      N   52   2.176   2.622   2.764
  121GLN      H   53   2.111   2.607   2.838
  121GLN     CA   54   2.308   2.557   2.772
  121GLN     HA   55   2.377   2.630   2.767
  121GLN     CB   56   2.315   2.484   2.906
  121GLN    HB1   57   2.262   2.534   2.975
  121GLN    HB2   58   2.278   2.391   2.896
  121GLN     CG   59   2.459   2.475   2.950
  121GLN    HG1   60   2.501   2.394   2.909
  121GLN    HG2   61   2.508   2.557   2.919
  121GLN     CD   62   2.468   2.467   3.100
  121GLN    OE1   63   2.543   2.542   3.161
  121GLN    NE2   64   2.394   2.366   3.148
  121GLN   HE21   65   2.343   2.308   3.085
  121GLN   HE22   66   2.391   2.349   3.247
  121GLN      C   67   2.338   2.465   2.654
  121GLN      O   68   2.454   2.446   2.615
  122ALA      N   69   2.236   2.406   2.591
  122ALA      H   70   2.146   2.412   2.634
  122ALA     CA   71   2.245   2.334   2.464
  122ALA     HA   72   2.294   2.250   2.489
  122ALA     CB   73   2.106   2.303   2.411
  122ALA    HB1   74   2.113   2.254   2.325
  122ALA    HB2   75   2.057   2.247   2.478
  122ALA    HB3   76   2.056   2.389   2.397
  122ALA      C   77   2.325   2.408   2.356
  122ALA      O   78   2.409   2.350   2.285
  123TRP      N   79   2.308   2.541   2.357
  123TRP      H   80   2.247   2.581   2.425
  123TRP     CA   81   2.376   2.629   2.261
  123TRP     HA   82   2.364   2.585   2.172
  123TRP     CB   83   2.309   2.766   2.268
  123TRP    HB1   84   2.307   2.799   2.362
  123TRP    HB2   85   2.358   2.831   2.210
  123TRP     CG   86   2.168   2.752   2.218
  123TRP    CD1   87   2.054   2.740   2.292
  123TRP    HD1   88   2.051   2.741   2.392
  123TRP    CD2   89   2.130   2.734   2.081
  123TRP    NE1   90   1.946   2.725   2.210
  123TRP    HE1   91   1.851   2.720   2.241
  123TRP    CE2   92   1.989   2.718   2.081
  123TRP    CE3   93   2.201   2.726   1.961
  123TRP    HE3   94   2.301   2.730   1.960
  123TRP    CZ2   95   1.917   2.697   1.964
  123TRP    HZ2   96   1.818   2.687   1.965
  123TRP    CZ3   97   2.128   2.712   1.844
  123TRP    HZ3   98   2.176   2.716   1.757
  123TRP    CH2   99   1.989   2.692   1.846
  123TRP    HH2  100   1.942   2.673   1.760
  123TRP      C  101   2.528   2.637   2.272
  123TRP      O  102   2.597   2.673   2.174
  124ILE      N  103   2.580   2.606   2.388
  124ILE      H  104   2.519   2.580   2.463
  124ILE     CA  105   2.725   2.608   2.413
  124ILE     HA  106   2.763   2.630   2.323
  124ILE     CB  107   2.756   2.719   2.519
  124ILE     HB  108   2.855   2.729   2.532
  124ILE    CG1  109   2.702   2.677   2.656
  124ILE   HG11  110   2.609   2.714   2.664
  124ILE   HG12  111   2.698   2.577   2.658
  124ILE    CG2  112   2.708   2.859   2.472
  124ILE   HG21  113   2.730   2.928   2.542
  124ILE   HG22  114   2.755   2.883   2.386
  124ILE   HG23  115   2.610   2.857   2.457
  124ILE     CD  116   2.779   2.723   2.782
  124ILE    HD1  117   2.733   2.689   2.864
  124ILE    HD2  118   2.872   2.686   2.779
  124ILE    HD3  119   2.782   2.823   2.785
  124ILE      C  120   2.792   2.475   2.435
  124ILE      O  121   2.916   2.468   2.446
  125ARG      N  122   2.714   2.369   2.446
  125ARG      H  123   2.615   2.382   2.441
  125ARG     CA  124   2.765   2.232   2.465
  125ARG     HA  125   2.828   2.235   2.543
  125ARG     CB  126   2.654   2.134   2.498
  125ARG    HB1  127   2.573   2.158   2.444
  125ARG    HB2  128   2.684   2.042   2.474
  125ARG     CG  129   2.618   2.139   2.648
  125ARG    HG1  130   2.701   2.137   2.703
  125ARG    HG2  131   2.566   2.222   2.668
  125ARG     CD  132   2.534   2.018   2.681
  125ARG    HD1  133   2.487   1.985   2.599
  125ARG    HD2  134   2.591   1.946   2.719
  125ARG     NE  135   2.434   2.054   2.780
  125ARG     HE  136   2.469   2.063   2.873
  125ARG     CZ  137   2.304   2.078   2.766
  125ARG    NH1  138   2.239   2.048   2.654
  125ARG   HH11  139   2.289   2.006   2.577
  125ARG   HH12  140   2.142   2.067   2.646
  125ARG    NH2  141   2.245   2.134   2.872
  125ARG   HH21  142   2.299   2.154   2.954
  125ARG   HH22  143   2.147   2.155   2.870
  125ARG      C  144   2.837   2.190   2.337
  125ARG      O  145   2.790   2.213   2.224
  126GLY      N  146   2.956   2.136   2.357
  126GLY      H  147   2.992   2.129   2.450
  126GLY     CA  148   3.035   2.085   2.243
  126GLY    HA1  149   3.080   2.000   2.271
  126GLY    HA2  150   2.973   2.066   2.167
  126GLY      C  151   3.139   2.186   2.199
  126GLY      O  152   3.228   2.152   2.118
  127CYS      N  153   3.140   2.301   2.263
  127CYS      H  154   3.075   2.314   2.338
  127CYS     CA  155   3.229   2.412   2.229
  127CYS     HA  156   3.264   2.396   2.137
  127CYS     CB  157   3.151   2.542   2.232
  127CYS    HB1  158   3.127   2.550   2.329
  127CYS    HB2  159   3.221   2.610   2.210
  127CYS     SG  160   3.007   2.561   2.127
  127CYS     HG  161   2.967   2.651   2.140
  127CYS      C  162   3.348   2.417   2.326
  127CYS      O  163   3.327   2.406   2.447
  128ARG      N  164   3.465   2.448   2.272
  128ARG      H  165   3.472   2.454   2.173
  128ARG     CA  166   3.583   2.475   2.355
  128ARG     HA  167   3.572   2.426   2.441
  128ARG     CB  168   3.711   2.409   2.304
  128ARG    HB1  169   3.706   2.404   2.204
  128ARG    HB2  170   3.789   2.466   2.331
  128ARG     CG  171   3.729   2.268   2.361
  128ARG    HG1  172   3.640   2.222   2.367
  128ARG    HG2  173   3.790   2.215   2.301
  128ARG     CD  174   3.789   2.270   2.498
  128ARG    HD1  175   3.741   2.338   2.554
  128ARG    HD2  176   3.780   2.180   2.540
  128ARG     NE  177   3.931   2.305   2.497
  128ARG     HE  178   3.989   2.247   2.440
  128ARG     CZ  179   3.992   2.405   2.561
  128ARG    NH1  180   3.930   2.486   2.648
  128ARG   HH11  181   3.833   2.473   2.667
  128ARG   HH12  182   3.981   2.559   2.694
  128ARG    NH2  183   4.119   2.434   2.530
  128ARG   HH21  184   4.167   2.382   2.460
  128ARG   HH22  185   4.166   2.509   2.578
  128ARG      C  186   3.588   2.623   2.391
  128ARG      O  187   3.604   2.708   2.302
  129LEU      N  188   3.535   2.650   2.510
  129LEU      H  189   3.507   2.574   2.568
  129LEU     CA  190   3.515   2.787   2.560
  129LEU     HA  191   3.534   2.851   2.485
  129LEU     CB  192   3.370   2.813   2.598
  129LEU    HB1  193   3.331   2.725   2.626
  129LEU    HB2  194   3.369   2.875   2.675
  129LEU     CG  195   3.275   2.871   2.495
  129LEU     HG  196   3.276   2.970   2.505
  129LEU    CD1  197   3.317   2.845   2.352
  129LEU   HD11  198   3.251   2.886   2.290
  129LEU   HD12  199   3.407   2.885   2.336
  129LEU   HD13  200   3.322   2.746   2.336
  129LEU    CD2  201   3.137   2.811   2.522
  129LEU   HD21  202   3.072   2.848   2.455
  129LEU   HD22  203   3.141   2.712   2.513
  129LEU   HD23  204   3.108   2.836   2.614
  129LEU      C  205   3.618   2.817   2.670
  129LEU     O1  206   3.579   2.807   2.789
  129LEU     O2  207   3.729   2.847   2.624
  130SOL     OW  208   0.230   0.628   0.113
  130SOL    HW1  209   0.137   0.626   0.150
  130SOL    HW2  210   0.231   0.589   0.021
  131SOL     OW  211   0.225   0.275   0.996
  131SOL    HW1  212   0.260   0.258   1.088
  131SOL    HW2  213   0.137   0.230   0.984
  132SOL     OW  214   0.019   0.368   0.647
  132SOL    HW1  215  -0.063   0.411   0.686
  132SOL    HW2  216  -0.009   0.295   0.584
  133SOL     OW  217   0.569   1.275   1.165
  133SOL    HW1  218   0.476   1.268   1.128
  133SOL    HW2  219   0.580   1.364   1.209
  134SOL     OW  220   1.555   1.511   0.703
  134SOL    HW1  221   1.498   1.495   0.784
  134SOL    HW2  222   1.496   1.521   0.623
  135SOL     OW  223   1.135   0.703   0.717
  135SOL    HW1  224   1.192   0.781   0.692
  135SOL    HW2  225   1.075   0.729   0.793
  136SOL     OW  226   1.755   0.607   0.231
  136SOL    HW1  227   1.743   0.594   0.132
  136SOL    HW2  228   1.725   0.526   0.280
  137SOL     OW  229   0.768   1.144   1.023
  137SOL    HW1  230   0.690   1.161   1.083
  137SOL    HW2  231   0.802   1.231   0.987
  138SOL     OW  232   0.850   0.798   1.823
  138SOL    HW1  233   0.846   0.874   1.888
  138SOL    HW2  234   0.872   0.834   1.732
  139SOL     OW  235   0.685   1.012   0.665
  139SOL    HW1  236   0.754   0.996   0.735
  139SOL    HW2  237   0.612   1.069   0.703
  140SOL     OW  238   0.686   1.161   1.803
  140SOL    HW1  239   0.746   1.240   1.817
  140SOL    HW2  240   0.600   1.192   1.762
  141SOL     OW  241   0.335   1.435   1.061
  141SOL    HW1  242   0.257   1.404   1.008
  141SOL    HW2  243   0.393   1.493   1.004
  142SOL     OW  244   1.460   1.505   1.339
  142SOL    HW1  245   1.484   1.599   1.365
  142SOL    HW2  246   1.444   1.451   1.421
  143SOL     OW  247   0.438   0.392   1.499
  143SOL    HW1  248   0.520   0.336   1.508
  143SOL    HW2  249   0.357   0.334   1.503
  144SOL     OW  250   1.603   0.447   0.737
  144SOL    HW1  251   1.529   0.493   0.687
  144SOL    HW2  252   1.654   0.515   0.790
  145SOL     OW  253   0.231   1.713   0.483
  145SOL    HW1  254   0.265   1.790   0.537
  145SOL    HW2  255   0.275   1.713   0.393
  146SOL     OW  256   1.127   1.341   1.690
  146SOL    HW1  257   1.174   1.341   1.778
  146SOL    HW2  258   1.079   1.254   1.679
  147SOL     OW  259   0.230   1.434   0.538
  147SOL    HW1  260   0.204   1.530   0.538
  147SOL    HW2  261   0.159   1.380   0.583
  148SOL     OW  262   0.240   1.091   0.886
  148SOL    HW1  263   0.254   1.007   0.938
  148SOL    HW2  264   0.185   1.155   0.941
  149SOL     OW  265   0.620   1.786   1.439
  149SOL    HW1  266   0.528   1.769   1.474
  149SOL    HW2  267   0.648   1.878   1.465
  150SOL     OW  268   0.606   0.964   0.123
  150SOL    HW1  269   0.613   1.048   0.069
  150SOL    HW2  270   0.652   0.977   0.211
  151SOL     OW  271   1.594   0.114   1.480
  151SOL    HW1  272   1.576   0.181   1.408
  151SOL    HW2  273   1.591   0.160   1.569
  152SOL     OW  274   0.122   0.643   0.563
  152SOL    HW1  275   0.077   0.555   0.580
  152SOL    HW2  276   0.121   0.697   0.647
  153SOL     OW  277   1.842   1.767   0.359
  153SOL    HW1  278   1.896   1.738   0.439
  153SOL    HW2  279   1.872   1.857   0.330
  154SOL     OW  280   0.027   1.596   0.117
  154SOL    HW1  281   0.008   1.500   0.138
  154SOL    HW2  282  -0.006   1.654   0.192
  155SOL     OW  283   1.689   0.922   0.612
  155SOL    HW1  284   1.784   0.893   0.620
  155SOL    HW2  285   1.681   0.987   0.537
  156SOL     OW  286   1.641   1.108   0.432
  156SOL    HW1  287   1.727   1.110   0.380
  156SOL    HW2  288   1.655   1.155   0.520
  157SOL     OW  289   0.113   0.737   1.597
  157SOL    HW1  290   0.201   0.724   1.642
  157SOL    HW2  291   0.100   0.834   1.575
  158SOL     OW  292   0.613   1.365   0.726
  158SOL    HW1  293   0.564   1.278   0.735
  158SOL    HW2  294   0.590   1.408   0.639
  159SOL     OW  295   1.293   1.228   1.423
  159SOL    HW1  296   1.330   1.155   1.365
  159SOL    HW2  297   1.345   1.233   1.508
  160SOL     OW  298   0.809   0.004   0.502
  160SOL    HW1  299   0.849   0.095   0.493
  160SOL    HW2  300   0.709   0.012   0.508
  161SOL     OW  301   0.197   0.976   1.264
  161SOL    HW1  302   0.286   0.931   1.250
  161SOL    HW2  303   0.124   0.911   1.245
  162SOL     OW  304   1.525   0.999   0.190
  162SOL    HW1  305   1.462   0.923   0.203
  162SOL    HW2  306   1.573   1.017   0.276
  163SOL     OW  307   1.187   1.792   1.616
  163SOL    HW1  308   1.211   1.852   1.540
  163SOL    HW2  309   1.194   1.697   1.586
  164SOL     OW  310   0.317   0.251   1.801
  164SOL    HW1  311   0.388   0.322   1.807
  164SOL    HW2  312   0.229   0.290   1.829
  165SOL     OW  313   1.466   1.417   0.953
  165SOL    HW1  314   1.407   1.423   1.033
  165SOL    HW2  315   1.451   1.329   0.907
  166SOL     OW  316   1.667   1.714   0.572
  166SOL    HW1  317   1.626   1.691   0.484
  166SOL    HW2  318   1.649   1.640   0.637
  167SOL     OW  319   0.598   0.729   0.270
  167SOL    HW1  320   0.622   0.798   0.202
  167SOL    HW2  321   0.520   0.762   0.324
  168SOL     OW  322   1.281   0.345   0.944
  168SOL    HW1  323   1.195   0.295   0.931
  168SOL    HW2  324   1.343   0.291   1.000
  169SOL     OW  325   1.576   1.662   0.307
  169SOL    HW1  326   1.665   1.708   0.310
  169SOL    HW2  327   1.555   1.638   0.212
  170SOL     OW  328   0.807   0.605   1.465
  170SOL    HW1  329   0.760   0.602   1.554
  170SOL    HW2  330   0.756   0.550   1.399
  171SOL     OW  331   1.394   0.469   1.674
  171SOL    HW1  332   1.374   0.512   1.762
  171SOL    HW2  333   1.472   0.407   1.683
  172SOL     OW  334   0.973   0.890   1.572
  172SOL    HW1  335   1.019   0.806   1.543
  172SOL    HW2  336   0.917   0.924   1.497
  173SOL     OW  337   0.991   0.410   1.242
  173SOL    HW1  338   0.914   0.444   1.296
  173SOL    HW2  339   0.957   0.359   1.163
  174SOL     OW  340   1.041   0.701   0.429
  174SOL    HW1  341   1.067   0.697   0.525
  174SOL    HW2  342   0.956   0.650   0.415
  175SOL     OW  343   0.076   0.811   0.789
  175SOL    HW1  344   0.175   0.799   0.798
  175SOL    HW2  345   0.052   0.906   0.810
  176SOL     OW  346   0.130   1.821   1.571
  176SOL    HW1  347   0.120   1.806   1.670
  176SOL    HW2  348   0.044   1.857   1.535
  177SOL     OW  349   0.865   0.348   0.195
  177SOL    HW1  350   0.924   0.411   0.146
  177SOL    HW2  351   0.884   0.254   0.166
  178SOL     OW  352   1.719   0.585   1.831
  178SOL    HW1  353   1.693   0.674   1.795
  178SOL    HW2  354   1.717   0.517   1.758
  179SOL     OW  355   1.362   1.144   0.545
  179SOL    HW1  356   1.445   1.115   0.497
  179SOL    HW2  357   1.313   1.211   0.489
  180SOL     OW  358   0.550   0.196   0.885
  180SOL    HW1  359   0.545   0.191   0.985
  180SOL    HW2  360   0.552   0.292   0.856
  181SOL     OW  361   1.008   1.456   0.477
  181SOL    HW1  362   0.962   1.528   0.425
  181SOL    HW2  363   1.004   1.476   0.575
  182SOL     OW  364   0.351   1.801   0.853
  182SOL    HW1  365   0.401   1.715   0.859
  182SOL    HW2  366   0.416   1.878   0.850
  183SOL     OW  367   1.795   1.066   0.873
  183SOL    HW1  368   1.733   1.051   0.797
  183SOL    HW2  369   1.743   1.077   0.958
  184SOL     OW  370   1.227   1.550   1.506
  184SOL    HW1  371   1.233   1.473   1.570
  184SOL    HW2  372   1.175   1.524   1.426
  185SOL     OW  373   0.321   0.943   0.242
  185SOL    HW1  374   0.403   0.982   0.200
  185SOL    HW2  375   0.294   0.861   0.193
  186SOL     OW  376   1.458   0.735   0.728
  186SOL    HW1  377   1.453   0.670   0.803
  186SOL    HW2  378   1.538   0.794   0.741
  187SOL     OW  379   0.461   1.266   1.727
  187SOL    HW1  380   0.411   1.267   1.641
  187SOL    HW2  381   0.398   1.248   1.803
  188SOL     OW  382   1.111   1.776   0.237
  188SOL    HW1  383   1.051   1.714   0.287
  188SOL    HW2  384   1.142   1.732   0.152
  189SOL     OW  385   0.202   0.285   1.498
  189SOL    HW1  386   0.122   0.345   1.485
  189SOL    HW2  387   0.192   0.236   1.584
  190SOL     OW  388   1.632   1.377   0.081
  190SOL    HW1  389   1.600   1.471   0.071
  190SOL    HW2  390   1.556   1.314   0.069
  191SOL     OW  391   0.464   1.743   0.323
  191SOL    HW1  392   0.497   1.782   0.409
  191SOL    HW2  393   0.540   1.736   0.258
  192SOL     OW  394   1.400   0.107   0.426
  192SOL    HW1  395   1.376   0.070   0.336
  192SOL    HW2  396   1.499   0.123   0.430
  193SOL     OW  397   0.249   1.785   1.241
  193SOL    HW1  398   0.306   1.720   1.291
  193SOL    HW2  399   0.233   1.752   1.148
  194SOL     OW  400   0.940   1.698   0.904
  194SOL    HW1  401   1.020   1.641   0.925
  194SOL    HW2  402   0.891   1.658   0.827
  195SOL     OW  403   0.382   0.700   0.480
  195SOL    HW1  404   0.427   0.610   0.477
  195SOL    HW2  405   0.288   0.689   0.513
  196SOL     OW  406   1.547   0.222   1.729
  196SOL    HW1  407   1.542   0.259   1.821
  196SOL    HW2  408   1.475   0.153   1.717
  197SOL     OW  409   0.614   0.122   0.117
  197SOL    HW1  410   0.712   0.100   0.124
  197SOL    HW2  411   0.583   0.105   0.024
  198SOL     OW  412   0.781   0.264   1.749
  198SOL    HW1  413   0.848   0.203   1.792
  198SOL    HW2  414   0.708   0.283   1.814
  199SOL     OW  415   0.888   1.514   1.195
  199SOL    HW1  416   0.865   1.489   1.101
  199SOL    HW2  417   0.949   1.445   1.234
  200SOL     OW  418   1.351   0.590   1.433
  200SOL    HW1  419   1.379   0.547   1.518
  200SOL    HW2  420   1.376   0.686   1.434
  201SOL     OW  421   0.803   1.402   0.924
  201SOL    HW1  422   0.893   1.416   0.882
  201SOL    HW2  423   0.732   1.404   0.853
  202SOL     OW  424   0.922   0.503   0.899
  202SOL    HW1  425   0.897   0.494   0.803
  202SOL    HW2  426   0.970   0.421   0.930
  203SOL     OW  427   0.539   0.064   0.512
  203SOL    HW1  428   0.458   0.065   0.570
  203SOL    HW2  429   0.542   0.147   0.457
  204SOL     OW  430   1.434   1.188   0.041
  204SOL    HW1  431   1.466   1.112   0.098
  204SOL    HW2  432   1.342   1.215   0.071
  205SOL     OW  433   0.297   0.035   0.171
  205SOL    HW1  434   0.346   0.119   0.150
  205SOL    HW2  435   0.359  -0.030   0.216
  206SOL     OW  436   0.935   0.236   0.480
  206SOL    HW1  437   0.887   0.277   0.402
  206SOL    HW2  438   1.034   0.234   0.461
  207SOL     OW  439   1.076   0.683   1.464
  207SOL    HW1  440   0.996   0.622   1.467
  207SOL    HW2  441   1.157   0.630   1.440
  208SOL     OW  442   1.227   1.570   0.793
  208SOL    HW1  443   1.248   1.644   0.728
  208SOL    HW2  444   1.295   1.570   0.866
  209SOL     OW  445   0.459   1.152   0.741
  209SOL    HW1  446   0.388   1.125   0.806
  209SOL    HW2  447   0.433   1.124   0.648
  210SOL     OW  448   1.271   1.797   0.591
  210SOL    HW1  449   1.315   1.861   0.527
  210SOL    HW2  450   1.221   1.849   0.661
  211SOL     OW  451   1.032   0.549   0.016
  211SOL    HW1  452   0.991   0.631  -0.023
  211SOL    HW2  453   1.096   0.575   0.089
  212SOL     OW  454   0.078   0.556   1.386
  212SOL    HW1  455   0.170   0.555   1.345
  212SOL    HW2  456   0.072   0.630   1.453
  213SOL     OW  457   0.561   0.222   1.147
  213SOL    HW1  458   0.599   0.138   1.184
  213SOL    HW2  459   0.473   0.241   1.191
  214SOL     OW  460   0.866   0.454   0.642
  214SOL    HW1  461   0.834   0.526   0.580
  214SOL    HW2  462   0.890   0.373   0.589
  215SOL     OW  463   1.017   0.039   0.753
  215SOL    HW1  464   0.945   0.044   0.684
  215SOL    HW2  465   0.993  -0.030   0.822
  216SOL     OW  466   1.429   1.173   0.867
  216SOL    HW1  467   1.374   1.089   0.860
  216SOL    HW2  468   1.455   1.202   0.775
  217SOL     OW  469   1.466   0.590   0.992
  217SOL    HW1  470   1.436   0.495   0.999
  217SOL    HW2  471   1.539   0.606   1.058
  218SOL     OW  472   1.857   0.833   0.377
  218SOL    HW1  473   1.899   0.769   0.441
  218SOL    HW2  474   1.819   0.782   0.299
  219SOL     OW  475   0.488   1.385   0.174
  219SOL    HW1  476   0.401   1.370   0.221
  219SOL    HW2  477   0.471   1.411   0.079
  220SOL     OW  478   1.664   1.280   0.657
  220SOL    HW1  479   1.763   1.288   0.671
  220SOL    HW2  480   1.619   1.364   0.688
  221SOL     OW  481   1.390   0.575   0.078
  221SOL    HW1  482   1.336   0.554   0.159
  221SOL    HW2  483   1.481   0.534   0.087
  222SOL     OW  484   0.527   0.256   0.328
  222SOL    HW1  485   0.554   0.197   0.253
  222SOL    HW2  486   0.527   0.351   0.297
  223SOL     OW  487   1.754   1.223   1.588
  223SOL    HW1  488   1.845   1.184   1.575
  223SOL    HW2  489   1.762   1.319   1.612
  224SOL     OW  490   1.064   1.347   1.340
  224SOL    HW1  491   0.984   1.324   1.395
  224SOL    HW2  492   1.147   1.321   1.389
  225SOL     OW  493   1.592   1.629   1.625
  225SOL    HW1  494   1.619   1.663   1.535
  225SOL    HW2  495   1.671   1.591   1.671
  226SOL     OW  496   1.111   1.195   1.100
  226SOL    HW1  497   1.071   1.239   1.181
  226SOL    HW2  498   1.070   1.232   1.017
  227SOL     OW  499   1.638   1.099   1.079
  227SOL    HW1  500   1.643   1.180   1.138
  227SOL    HW2  501   1.552   1.101   1.028
  228SOL     OW  502   0.915   0.089   1.402
  228SOL    HW1  503   0.940   0.069   1.307
  228SOL    HW2  504   0.987   0.145   1.444
  229SOL     OW  505   0.980   1.116   1.719
  229SOL    HW1  506   0.881   1.122   1.729
  229SOL    HW2  507   1.003   1.036   1.663
  230SOL     OW  508   0.705   1.050   0.368
  230SOL    HW1  509   0.691   1.057   0.467
  230SOL    HW2  510   0.789   0.999   0.350
  231SOL     OW  511   0.410   0.813   1.251
  231SOL    HW1  512   0.496   0.825   1.301
  231SOL    HW2  513   0.368   0.726   1.278
  232SOL     OW  514   1.274   0.386   1.262
  232SOL    HW1  515   1.295   0.460   1.326
  232SOL    HW2  516   1.185   0.403   1.219
  233SOL     OW  517   0.064   1.564   1.331
  233SOL    HW1  518   0.018   1.646   1.297
  233SOL    HW2  519   0.162   1.583   1.340
  234SOL     OW  520   0.367   1.100   0.501
  234SOL    HW1  521   0.360   1.183   0.445
  234SOL    HW2  522   0.371   1.020   0.441
  235SOL     OW  523   0.566   0.537   0.865
  235SOL    HW1  524   0.578   0.603   0.791
  235SOL    HW2  525   0.612   0.571   0.948
  236SOL     OW  526   1.252   1.348   0.388
  236SOL    HW1  527   1.302   1.425   0.428
  236SOL    HW2  528   1.157   1.350   0.420
  237SOL     OW  529   1.272   1.445   1.142
  237SOL    HW1  530   1.319   1.458   1.229
  237SOL    HW2  531   1.206   1.371   1.151
  238SOL     OW  532   1.582   0.639   0.472
  238SOL    HW1  533   1.551   0.700   0.545
  238SOL    HW2  534   1.632   0.691   0.403
  239SOL     OW  535   0.354   1.510   1.329
  239SOL    HW1  536   0.333   1.466   1.242
  239SOL    HW2  537   0.451   1.536   1.332
  240SOL     OW  538   0.402   0.751   1.598
  240SOL    HW1  539   0.470   0.806   1.551
  240SOL    HW2  540   0.442   0.663   1.625
  241SOL     OW  541   1.587   0.779   1.670
  241SOL    HW1  542   1.495   0.817   1.665
  241SOL    HW2  543   1.647   0.826   1.605
  242SOL     OW  544   1.013   0.105   1.770
  242SOL    HW1  545   1.019   0.190   1.718
  242SOL    HW2  546   1.045   0.029   1.713
  243SOL     OW  547   0.504   0.050   1.740
  243SOL    HW1  548   0.462  -0.007   1.670
  243SOL    HW2  549   0.438   0.119   1.772
  244SOL     OW  550   0.573   0.870   1.029
  244SOL    HW1  551   0.617   0.959   1.020
  244SOL    HW2  552   0.510   0.870   1.106
  245SOL     OW  553   1.360   0.862   1.045
  245SOL    HW1  554   1.285   0.862   0.979
  245SOL    HW2  555   1.397   0.770   1.054
  246SOL     OW  556   1.209   0.525   0.275
  246SOL    HW1  557   1.222   0.441   0.329
  246SOL    HW2  558   1.180   0.599   0.335
  247SOL     OW  559   0.307   0.213   1.231
  247SOL    HW1  560   0.284   0.250   1.321
  247SOL    HW2  561   0.277   0.118   1.225
  248SOL     OW  562   0.037   1.310   1.282
  248SOL    HW1  563   0.090   1.261   1.350
  248SOL    HW2  564   0.059   1.408   1.287
  249SOL     OW  565   0.732   0.634   1.064
  249SOL    HW1  566   0.791   0.608   0.988
  249SOL    HW2  567   0.704   0.730   1.053
  250SOL     OW  568   1.728   0.935   1.854
  250SOL    HW1  569   1.682   0.928   1.765
  250SOL    HW2  570   1.666   0.979   1.920
  251SOL     OW  571   0.307   0.063   0.618
  251SOL    HW1  572   0.296   0.157   0.651
  251SOL    HW2  573   0.302   0.000   0.695
  252SOL     OW  574   1.622   0.367   0.374
  252SOL    HW1  575   1.624   0.291   0.438
  252SOL    HW2  576   1.574   0.444   0.414
  253SOL     OW  577   1.023   0.766   0.966
  253SOL    HW1  578   1.038   0.787   1.062
  253SOL    HW2  579   0.993   0.671   0.957
  254SOL     OW  580   0.980   1.573   1.700
  254SOL    HW1  581   0.960   1.617   1.612
  254SOL    HW2  582   1.019   1.482   1.684
  255SOL     OW  583   1.859   1.518   1.605
  255SOL    HW1  584   1.873   1.545   1.510
  255SOL    HW2  585   1.942   1.540   1.658
  256SOL     OW  586   0.350   0.898   1.804
  256SOL    HW1  587   0.426   0.942   1.852
  256SOL    HW2  588   0.385   0.851   1.722
  257SOL     OW  589   1.540   0.274   0.125
  257SOL    HW1  590   1.479   0.199   0.148
  257SOL    HW2  591   1.562   0.326   0.208
  258SOL     OW  592   1.303   0.838   0.042
  258SOL    HW1  593   1.337   0.745   0.057
  258SOL    HW2  594   1.321   0.865  -0.053
  259SOL     OW  595   1.068   1.333   0.849
  259SOL    HW1  596   1.075   1.249   0.794
  259SOL    HW2  597   1.130   1.402   0.813
  260SOL     OW  598   0.319   0.810   0.949
  260SOL    HW1  599   0.412   0.846   0.954
  260SOL    HW2  600   0.313   0.725   1.001
  261SOL     OW  601   0.339   0.509   1.006
  261SOL    HW1  602   0.287   0.426   0.989
  261SOL    HW2  603   0.416   0.514   0.942
  262SOL     OW  604   1.138   0.380   1.678
  262SOL    HW1  605   1.093   0.443   1.742
  262SOL    HW2  606   1.231   0.411   1.661
  263SOL     OW  607   1.160   0.207   1.477
  263SOL    HW1  608   1.160   0.271   1.554
  263SOL    HW2  609   1.188   0.255   1.394
  264SOL     OW  610   0.008   1.326   0.200
  264SOL    HW1  611  -0.085   1.347   0.169
  264SOL    HW2  612   0.018   1.227   0.213
  265SOL     OW  613   0.088   1.801   0.927
  265SOL    HW1  614   0.046   1.715   0.900
  265SOL    HW2  615   0.182   1.804   0.893
  266SOL     OW  616   0.504   1.568   0.910
  266SOL    HW1  617   0.570   1.642   0.919
  266SOL    HW2  618   0.548   1.489   0.868
  267SOL     OW  619   1.002   0.796   1.238
  267SOL    HW1  620   1.043   0.764   1.324
  267SOL    HW2  621   0.906   0.769   1.235
  268SOL     OW  622   0.040   0.544   1.114
  268SOL    HW1  623   0.125   0.511   1.073
  268SOL    HW2  624   0.053   0.559   1.212
  269SOL     OW  625   0.189   0.520   1.722
  269SOL    HW1  626   0.248   0.480   1.652
  269SOL    HW2  627   0.131   0.591   1.681
  270SOL     OW  628   1.369   0.950   1.660
  270SOL    HW1  629   1.408   1.039   1.680
  270SOL    HW2  630   1.379   0.930   1.563
  271SOL     OW  631   0.815   0.572   0.325
  271SOL    HW1  632   0.822   0.483   0.279
  271SOL    HW2  633   0.721   0.606   0.317
  272SOL     OW  634   1.657   0.604   1.206
  272SOL    HW1  635   1.619   0.535   1.268
  272SOL    HW2  636   1.739   0.568   1.162
  273SOL     OW  637   0.252   1.564   1.744
  273SOL    HW1  638   0.222   1.621   1.820
  273SOL    HW2  639   0.245   1.467   1.770
  274SOL     OW  640   0.671   0.464   1.269
  274SOL    HW1  641   0.637   0.375   1.239
  274SOL    HW2  642   0.697   0.518   1.189
  275SOL     OW  643   0.930   1.678   1.465
  275SOL    HW1  644   0.906   1.660   1.370
  275SOL    HW2  645   0.960   1.772   1.475
  276SOL     OW  646   0.473   0.500   0.191
  276SOL    HW1  647   0.534   0.580   0.195
  276SOL    HW2  648   0.378   0.531   0.198
  277SOL     OW  649   0.159   1.137   1.466
  277SOL    HW1  650   0.181   1.076   1.542
  277SOL    HW2  651   0.169   1.088   1.380
  278SOL     OW  652   1.347   1.059   1.234
  278SOL    HW1  653   1.371   0.996   1.160
  278SOL    HW2  654   1.257   1.099   1.216
  279SOL     OW  655   1.302   0.855   0.309
  279SOL    HW1  656   1.216   0.824   0.351
  279SOL    HW2  657   1.298   0.841   0.210
  280SOL     OW  658   1.759   1.747   1.154
  280SOL    HW1  659   1.820   1.777   1.081
  280SOL    HW2  660   1.721   1.658   1.132
  281SOL     OW  661   1.252   1.731   1.128
  281SOL    HW1  662   1.336   1.736   1.074
  281SOL    HW2  663   1.229   1.635   1.146
  282SOL     OW  664   0.083   1.258   1.022
  282SOL    HW1  665   0.078   1.257   1.122
  282SOL    HW2  666   0.000   1.217   0.984
  283SOL     OW  667   0.688   1.662   1.716
  283SOL    HW1  668   0.632   1.743   1.725
  283SOL    HW2  669   0.740   1.666   1.630
  284SOL     OW  670   0.903   0.086   0.133
  284SOL    HW1  671   0.954   0.087   0.047
  284SOL    HW2  672   0.959   0.044   0.204
  285SOL     OW  673   1.726   0.135   0.523
  285SOL    HW1  674   1.799   0.118   0.456
  285SOL    HW2  675   1.695   0.048   0.561
  286SOL     OW  676   1.388   1.573   0.477
  286SOL    HW1  677   1.455   1.585   0.403
  286SOL    HW2  678   1.348   1.662   0.500
  287SOL     OW  679   0.130   1.794   1.851
  287SOL    HW1  680   0.089   1.720   1.904
  287SOL    HW2  681   0.194   1.845   1.909
  288SOL     OW  682   1.280   0.927   0.672
  288SOL    HW1  683   1.340   0.846   0.674
  288SOL    HW2  684   1.320   0.996   0.612
  289SOL     OW  685   0.830   1.273   1.422
  289SOL    HW1  686   0.825   1.306   1.517
  289SOL    HW2  687   0.744   1.292   1.376
  290SOL     OW  688   0.672   1.616   0.154
  290SOL    HW1  689   0.681   1.626   0.055
  290SOL    HW2  690   0.632   1.527   0.175
  291SOL     OW  691   1.650   1.720   1.394
  291SOL    HW1  692   1.703   1.730   1.310
  291SOL    HW2  693   1.623   1.810   1.428
  292SOL     OW  694   1.841   0.175   0.963
  292SOL    HW1  695   1.880   0.090   0.927
  292SOL    HW2  696   1.743   0.177   0.944
  293SOL     OW  697   0.263   0.326   0.720
  293SOL    HW1  698   0.184   0.377   0.686
  293SOL    HW2  699   0.254   0.311   0.818
  294SOL     OW  700   1.194   1.612   0.031
  294SOL    HW1  701   1.200   1.519   0.068
  294SOL    HW2  702   1.135   1.612  -0.049
  295SOL     OW  703   0.822   1.002   1.372
  295SOL    HW1  704   0.862   1.001   1.280
  295SOL    HW2  705   0.832   1.094   1.412
  296SOL     OW  706   0.916   0.910   0.291
  296SOL    HW1  707   0.979   0.948   0.223
  296SOL    HW2  708   0.956   0.827   0.330
  297SOL     OW  709   1.504   1.607   0.044
  297SOL    HW1  710   1.412   1.644   0.051
  297SOL    HW2  711   1.542   1.627  -0.046
  298SOL     OW  712   0.372   1.288   1.490
  298SOL    HW1  713   0.359   1.381   1.456
  298SOL    HW2  714   0.288   1.236   1.477
  299SOL     OW  715   1.614   1.292   1.289
  299SOL    HW1  716   1.674   1.295   1.369
  299SOL    HW2  717   1.539   1.356   1.302
  300SOL     OW  718   1.039   1.098   0.696
  300SOL    HW1  719   0.969   1.051   0.750
  300SOL    HW2  720   1.098   1.030   0.653
  301SOL     OW  721   1.014   0.236   0.971
  301SOL    HW1  722   1.006   0.200   0.878
  301SOL    HW2  723   1.012   0.160   1.036
  302SOL     OW  724   0.590   1.487   0.491
  302SOL    HW1  725   0.632   1.429   0.421
  302SOL    HW2  726   0.546   1.566   0.447
  303SOL     OW  727   1.709   0.385   1.381
  303SOL    HW1  728   1.782   0.454   1.385
  303SOL    HW2  729   1.737   0.310   1.322
  304SOL     OW  730   0.255   1.348   0.290
  304SOL    HW1  731   0.159   1.349   0.263
  304SOL    HW2  732   0.267   1.401   0.374
  305SOL     OW  733   0.105   1.013   1.726
  305SOL    HW1  734   0.028   0.980   1.780
  305SOL    HW2  735   0.190   0.983   1.768
  306SOL     OW  736   0.672   0.203   1.489
  306SOL    HW1  737   0.762   0.187   1.449
  306SOL    HW2  738   0.680   0.208   1.588
  307SOL     OW  739   0.075   0.345   0.033
  307SOL    HW1  740  -0.017   0.317   0.004
  307SOL    HW2  741   0.106   0.422  -0.023
  308SOL     OW  742   1.440   0.856   1.398
  308SOL    HW1  743   1.383   0.908   1.335
  308SOL    HW2  744   1.536   0.868   1.374
  309SOL     OW  745   0.072   0.166   0.318
  309SOL    HW1  746   0.055   0.249   0.264
  309SOL    HW2  747   0.162   0.129   0.296
  310SOL     OW  748   1.183   1.335   0.119
  310SOL    HW1  749   1.084   1.324   0.121
  310SOL    HW2  750   1.217   1.350   0.212
  311SOL     OW  751   0.613   0.842   1.431
  311SOL    HW1  752   0.669   0.923   1.414
  311SOL    HW2  753   0.672   0.762   1.434
  312SOL     OW  754   1.493   1.767   0.959
  312SOL    HW1  755   1.526   1.831   0.890
  312SOL    HW2  756   1.559   1.761   1.034
  313SOL     OW  757   0.716   0.565   1.708
  313SOL    HW1  758   0.735   0.630   1.782
  313SOL    HW2  759   0.776   0.485   1.717
  314SOL     OW  760   1.450   1.220   1.633
  314SOL    HW1  761   1.441   1.210   1.732
  314SOL    HW2  762   1.546   1.213   1.607
  315SOL     OW  763   0.390   1.741   1.560
  315SOL    HW1  764   0.299   1.782   1.558
  315SOL    HW2  765   0.383   1.647   1.592
  316SOL     OW  766   1.674   0.883   1.254
  316SOL    HW1  767   1.647   0.794   1.217
  316SOL    HW2  768   1.675   0.951   1.181
  317SOL     OW  769   1.225   0.325   0.449
  317SOL    HW1  770   1.290   0.251   0.438
  317SOL    HW2  771   1.245   0.375   0.533
  318SOL     OW  772   0.594   0.745   0.652
  318SOL    HW1  773   0.644   0.830   0.633
  318SOL    HW2  774   0.506   0.747   0.604
  319SOL     OW  775   1.777   0.342   1.642
  319SOL    HW1  776   1.760   0.373   1.548
  319SOL    HW2  777   1.693   0.305   1.680
  320SOL     OW  778   1.730   0.934   1.517
  320SOL    HW1  779   1.768   1.025   1.532
  320SOL    HW2  780   1.722   0.917   1.418
  321SOL     OW  781   0.859   1.374   0.016
  321SOL    HW1  782   0.813   1.389   0.104
  321SOL    HW2  783   0.903   1.459  -0.014
  322SOL     OW  784   0.661   1.790   0.953
  322SOL    HW1  785   0.615   1.878   0.940
  322SOL    HW2  786   0.760   1.802   0.946
  323SOL     OW  787   0.859   0.956   0.861
  323SOL    HW1  788   0.913   0.887   0.909
  323SOL    HW2  789   0.827   1.025   0.927
  324SOL     OW  790   1.083   0.984   0.087
  324SOL    HW1  791   1.060   1.037   0.005
  324SOL    HW2  792   1.164   0.928   0.068
  325SOL     OW  793   1.861   1.569   0.851
  325SOL    HW1  794   1.790   1.557   0.781
  325SOL    HW2  795   1.862   1.490   0.911
  326SOL     OW  796   0.221   1.314   1.844
  326SOL    HW1  797   0.156   1.241   1.823
  326SOL    HW2  798   0.225   1.328   1.942
  327SOL     OW  799   0.079   1.240   0.653
  327SOL    HW1  800   0.078   1.193   0.741
  327SOL    HW2  801   0.161   1.212   0.602
  328SOL     OW  802   0.672   1.391   1.624
  328SOL    HW1  803   0.594   1.341   1.662
  328SOL    HW2  804   0.669   1.486   1.655
  329SOL     OW  805   1.824   0.192   1.227
  329SOL    HW1  806   1.820   0.102   1.271
  329SOL    HW2  807   1.827   0.181   1.128
  330SOL     OW  808   0.428   0.424   0.520
  330SOL    HW1  809   0.458   0.352   0.458
  330SOL    HW2  810   0.389   0.384   0.603
  331SOL     OW  811   1.705   1.487   1.104
  331SOL    HW1  812   1.612   1.462   1.077
  331SOL    HW2  813   1.731   1.437   1.186
  332SOL     OW  814   0.317   0.547   1.280
  332SOL    HW1  815   0.355   0.488   1.352
  332SOL    HW2  816   0.357   0.521   1.192
  333SOL     OW  817   0.812   1.586   0.687
  333SOL    HW1  818   0.844   1.596   0.593
  333SOL    HW2  819   0.733   1.524   0.689
  334SOL     OW  820   1.424   0.214   1.112
  334SOL    HW1  821   1.476   0.149   1.167
  334SOL    HW2  822   1.375   0.277   1.173
  335SOL     OW  823   1.001   0.034   1.154
  335SOL    HW1  824   0.938  -0.038   1.123
  335SOL    HW2  825   1.094  -0.002   1.154
  336SOL     OW  826   0.770   1.330   0.301
  336SOL    HW1  827   0.724   1.243   0.318
  336SOL    HW2  828   0.861   1.327   0.342
  337SOL     OW  829   0.618   1.567   1.284
  337SOL    HW1  830   0.613   1.649   1.341
  337SOL    HW2  831   0.707   1.564   1.239
  338SOL     OW  832   1.352   0.052   0.168
  338SOL    HW1  833   1.387   0.011   0.084
  338SOL    HW2  834   1.262   0.014   0.188
  339SOL     OW  835   1.300   0.453   0.691
  339SOL    HW1  836   1.241   0.533   0.695
  339SOL    HW2  837   1.315   0.418   0.784
  340SOL     OW  838   1.593   0.221   0.882
  340SOL    HW1  839   1.509   0.220   0.936
  340SOL    HW2  840   1.595   0.304   0.826
  341SOL     OW  841   0.039   1.077   0.300
  341SOL    HW1  842   0.138   1.066   0.291
  341SOL    HW2  843  -0.001   0.991   0.332
  342SOL     OW  844   0.875   1.646   0.337
  342SOL    HW1  845   0.798   1.611   0.283
  342SOL    HW2  846   0.843   1.717   0.399
  343SOL     OW  847   0.230   0.628   1.975
  343SOL    HW1  848   0.137   0.626   2.012
  343SOL    HW2  849   0.231   0.589   1.883
  344SOL     OW  850   0.225   0.275   2.858
  344SOL    HW1  851   0.260   0.258   2.950
  344SOL    HW2  852   0.137   0.230   2.846
  345SOL     OW  853   0.019   0.368   2.509
  345SOL    HW1  854  -0.063   0.411   2.548
  345SOL    HW2  855  -0.009   0.295   2.446
  346SOL     OW  856   0.569   1.275   3.027
  346SOL    HW1  857   0.476   1.268   2.990
  346SOL    HW2  858   0.580   1.364   3.071
  347SOL     OW  859   1.555   1.511   2.565
  347SOL    HW1  860   1.498   1.495   2.646
  347SOL    HW2  861   1.496   1.521   2.485
  348SOL     OW  862   1.135   0.703   2.579
  348SOL    HW1  863   1.192   0.781   2.554
  348SOL    HW2  864   1.075   0.729   2.655
  349SOL     OW  865   1.755   0.607   2.093
  349SOL    HW1  866   1.743   0.594   1.994
  349SOL    HW2  867   1.725   0.526   2.142
  350SOL     OW  868   0.768   1.144   2.885
  350SOL    HW1  869   0.690   1.161   2.945
  350SOL    HW2  870   0.802   1.231   2.849
  351SOL     OW  871   0.850   0.798   3.685
  351SOL    HW1  872   0.846   0.874   3.750
  351SOL    HW2  873   0.872   0.834   3.594
  352SOL     OW  874   0.685   1.012   2.527
  352SOL    HW1  875   0.754   0.996   2.597
  352SOL    HW2  876   0.612   1.069   2.565
  353SOL     OW  877   0.686   1.161   3.665
  353SOL    HW1  878   0.746   1.240   3.679
  353SOL    HW2  879   0.600   1.192   3.624
  354SOL     OW  880   0.335   1.435   2.923
  354SOL    HW1  881   0.257   1.404   2.870
  354SOL    HW2  882   0.393   1.493   2.866
  355SOL     OW  883   1.460   1.505   3.201
  355SOL    HW1  884   1.484   1.599   3.227
  355SOL    HW2  885   1.444   1.451   3.283
  356SOL     OW  886   0.438   0.392   3.361
  356SOL    HW1  887   0.520   0.336   3.370
  356SOL    HW2  888   0.357   0.334   3.365
  357SOL     OW  889   1.603   0.447   2.599
  357SOL    HW1  890   1.529   0.493   2.549
  357SOL    HW2  891   1.654   0.515   2.652
  358SOL     OW  892   0.231   1.713   2.345
  358SOL    HW1  893   0.265   1.790   2.399
  358SOL    HW2  894   0.275   1.713   2.255
  359SOL     OW  895   1.127   1.341   3.552
  359SOL    HW1  896   1.174   1.341   3.640
  359SOL    HW2  897   1.079   1.254   3.541
  360SOL     OW  898   0.230   1.434   2.400
  360SOL    HW1  899   0.204   1.530   2.400
  360SOL    HW2  900   0.159   1.380   2.445
  361SOL     OW  901   0.240   1.091   2.748
  361SOL    HW1  902   0.254   1.007   2.800
  361SOL    HW2  903   0.185   1.155   2.803
  362SOL     OW  904   0.620   1.786   3.301
  362SOL    HW1  905   0.528   1.769   3.336
  362SOL    HW2  906   0.648   1.878   3.327
  363SOL     OW  907   0.606   0.964   1.985
  363SOL    HW1  908   0.613   1.048   1.931
  363SOL    HW2  909   0.652   0.977   2.073
  364SOL     OW  910   1.594   0.114   3.342
  364SOL    HW1  911   1.576   0.181   3.270
  364SOL    HW2  912   1.591   0.160   3.431
  365SOL     OW  913   0.122   0.643   2.425
  365SOL    HW1  914   0.077   0.555   2.442
  365SOL    HW2  915   0.121   0.697   2.509
  366SOL     OW  916   1.842   1.767   2.221
  366SOL    HW1  917   1.896   1.738   2.301
  366SOL    HW2  918   1.872   1.857   2.192
  367SOL     OW  919   0.027   1.596   1.979
  367SOL    HW1  920   0.008   1.500   2.000
  367SOL    HW2  921  -0.006   1.654   2.054
  368SOL     OW  922   1.689   0.922   2.474
  368SOL    HW1  923   1.784   0.893   2.482
  368SOL    HW2  924   1.681   0.987   2.399
  369SOL     OW  925   1.641   1.108   2.294
  369SOL    HW1  926   1.727   1.110   2.242
  369SOL    HW2  927   1.655   1.155   2.382
  370SOL     OW  928   0.113   0.737   3.459
  370SOL    HW1  929   0.201   0.724   3.504
  370SOL    HW2  930   0.100   0.834   3.437
  371SOL     OW  931   0.613   1.365   2.588
  371SOL    HW1  932   0.564   1.278   2.597
  371SOL    HW2  933   0.590   1.408   2.501
  372SOL     OW  934   1.293   1.228   3.285
  372SOL    HW1  935   1.330   1.155   3.227
  372SOL    HW2  936   1.345   1.233   3.370
  373SOL     OW  937   0.809   0.004   2.364
  373SOL    HW1  938   0.849   0.095   2.355
  373SOL    HW2  939   0.709   0.012   2.370
  374SOL     OW  940   0.197   0.976   3.126
  374SOL    HW1  941   0.286   0.931   3.112
  374SOL    HW2  942   0.124   0.911   3.107
  375SOL     OW  943   1.525   0.999   2.052
  375SOL    HW1  944   1.462   0.923   2.065
  375SOL    HW2  945   1.573   1.017   2.138
  376SOL     OW  946   1.187   1.792   3.478
  376SOL    HW1  947   1.211   1.852   3.402
  376SOL    HW2  948   1.194   1.697   3.448
  377SOL     OW  949   0.317   0.251   3.663
  377SOL    HW1  950   0.388   0.322   3.669
  377SOL    HW2  951   0.229   0.290   3.691
  378SOL     OW  952   1.466   1.417   2.815
  378SOL    HW1  953   1.407   1.423   2.895
  378SOL    HW2  954   1.451   1.329   2.769
  379SOL     OW  955   1.667   1.714   2.434
  379SOL    HW1  956   1.626   1.691   2.346
  379SOL    HW2  957   1.649   1.640   2.499
  380SOL     OW  958   0.598   0.729   2.132
  380SOL    HW1  959   0.622   0.798   2.064
  380SOL    HW2  960   0.520   0.762   2.186
  381SOL     OW  961   1.281   0.345   2.806
  381SOL    HW1  962   1.195   0.295   2.793
  381SOL    HW2  963   1.343   0.291   2.862
  382SOL     OW  964   1.576   1.662   2.169
  382SOL    HW1  965   1.665   1.708   2.172
  382SOL    HW2  966   1.555   1.638   2.074
  383SOL     OW  967   0.807   0.605   3.327
  383SOL    HW1  968   0.760   0.602   3.416
  383SOL    HW2  969   0.756   0.550   3.261
  384SOL     OW  970   1.394   0.469   3.536
  384SOL    HW1  971   1.374   0.512   3.624
  384SOL    HW2  972   1.472   0.407   3.545
  385SOL     OW  973   0.973   0.890   3.434
  385SOL    HW1  974   1.019   0.806   3.405
  385SOL    HW2  975   0.917   0.924   3.359
  386SOL     OW  976   0.991   0.410   3.104
  386SOL    HW1  977   0.914   0.444   3.158
  386SOL    HW2  978   0.957   0.359   3.025
  387SOL     OW  979   1.041   0.701   2.291
  387SOL    HW1  980   1.067   0.697   2.387
  387SOL    HW2  981   0.956   0.650   2.277
  388SOL     OW  982   0.076   0.811   2.651
  388SOL    HW1  983   0.175   0.799   2.660
  388SOL    HW2  984   0.052   0.906   2.672
  389SOL     OW  985   0.130   1.821   3.433
  389SOL    HW1  986   0.120   1.806   3.532
  389SOL    HW2  987   0.044   1.857   3.397
  390SOL     OW  988   0.865   0.348   2.057
  390SOL    HW1  989   0.924   0.411   2.008
  390SOL    HW2  990   0.884   0.254   2.028
  391SOL     OW  991   1.719   0.585   3.693
  391SOL    HW1  992   1.693   0.674   3.657
  391SOL    HW2  993   1.717   0.517   3.620
  392SOL     OW  994   1.362   1.144   2.407
  392SOL    HW1  995   1.445   1.115   2.359
  392SOL    HW2  996   1.313   1.211   2.351
  393SOL     OW  997   0.550   0.196   2.747
  393SOL    HW1  998   0.545   0.191   2.847
  393SOL    HW2  999   0.552   0.292   2.718
  394SOL     OW 1000   1.008   1.456   2.339
  394SOL    HW1 1001   0.962   1.528   2.287
  394SOL    HW2 1002   1.004   1.476   2.437
  395SOL     OW 1003   0.351   1.801   2.715
  395SOL    HW1 1004   0.401   1.715   2.721
  395SOL    HW2 1005   0.416   1.878   2.712
  396SOL     OW 1006   1.795   1.066   2.735
  396SOL    HW1 1007   1.733   1.051   2.659
  396SOL    HW2 1008   1.743   1.077   2.820
  397SOL     OW 1009   1.227   1.550   3.368
  397SOL    HW1 1010   1.233   1.473   3.432
  397SOL    HW2 1011   1.175   1.524   3.288
  398SOL     OW 1012   0.321   0.943   2.104
  398SOL    HW1 1013   0.403   0.982   2.062
  398SOL    HW2 1014   0.294   0.861   2.055
  399SOL     OW 1015   1.458   0.735   2.590
  399SOL    HW1 1016   1.453   0.670   2.665
  399SOL    HW2 1017   1.538   0.794   2.603
  400SOL     OW 1018   0.461   1.266   3.589
  400SOL    HW1 1019   0.411   1.267   3.503
  400SOL    HW2 1020   0.398   1.248   3.665
  401SOL     OW 1021   1.111   1.776   2.099
  401SOL    HW1 1022   1.051   1.714   2.149
  401SOL    HW2 1023   1.142   1.732   2.014
  402SOL     OW 1024   0.202   0.285   3.360
  402SOL    HW1 1025   0.122   0.345   3.347
  402SOL    HW2 1026   0.192   0.236   3.446
  403SOL     OW 1027   1.632   1.377   1.943
  403SOL    HW1 1028   1.600   1.471   1.933
  403SOL    HW2 1029   1.556   1.314   1.931
  404SOL     OW 1030   0.464   1.743   2.185
  404SOL    HW1 1031   0.497   1.782   2.271
  404SOL    HW2 1032   0.540   1.736   2.120
  405SOL     OW 1033   1.400   0.107   2.288
  405SOL    HW1 1034   1.376   0.070   2.198
  405SOL    HW2 1035   1.499   0.123   2.292
  406SOL     OW 1036   0.249   1.785   3.103
  406SOL    HW1 1037   0.306   1.720   3.153
  406SOL    HW2 1038   0.233   1.752   3.010
  407SOL     OW 1039   0.940   1.698   2.766
  407SOL    HW1 1040   1.020   1.641   2.787
  407SOL    HW2 1041   0.891   1.658   2.689
  408SOL     OW 1042   0.382   0.700   2.342
  408SOL    HW1 1043   0.427   0.610   2.339
  408SOL    HW2 1044   0.288   0.689   2.375
  409SOL     OW 1045   1.547   0.222   3.591
  409SOL    HW1 1046   1.542   0.259   3.683
  409SOL    HW2 1047   1.475   0.153   3.579
  410SOL     OW 1048   0.614   0.122   1.979
  410SOL    HW1 1049   0.712   0.100   1.986
  410SOL    HW2 1050   0.583   0.105   1.886
  411SOL     OW 1051   0.781   0.264   3.611
  411SOL    HW1 1052   0.848   0.203   3.654
  411SOL    HW2 1053   0.708   0.283   3.676
  412SOL     OW 1054   0.888   1.514   3.057
  412SOL    HW1 1055   0.865   1.489   2.963
  412SOL    HW2 1056   0.949   1.445   3.096
  413SOL     OW 1057   1.351   0.590   3.295
  413SOL    HW1 1058   1.379   0.547   3.380
  413SOL    HW2 1059   1.376   0.686   3.296
  414SOL     OW 1060   0.803   1.402   2.786
  414SOL    HW1 1061   0.893   1.416   2.744
  414SOL    HW2 1062   0.732   1.404   2.715
  415SOL     OW 1063   0.922   0.503   2.761
  415SOL    HW1 1064   0.897   0.494   2.665
  415SOL    HW2 1065   0.970   0.421   2.792
  416SOL     OW 1066   0.539   0.064   2.374
  416SOL    HW1 1067   0.458   0.065   2.432
  416SOL    HW2 1068   0.542   0.147   2.319
  417SOL     OW 1069   1.434   1.188   1.903
  417SOL    HW1 1070   1.466   1.112   1.960
  417SOL    HW2 1071   1.342   1.215   1.933
  418SOL     OW 1072   0.297   0.035   2.033
  418SOL    HW1 1073   0.346   0.119   2.012
  418SOL    HW2 1074   0.359  -0.030   2.078
  419SOL     OW 1075   0.935   0.236   2.342
  419SOL    HW1 1076   0.887   0.277   2.264
  419SOL    HW2 1077   1.034   0.234   2.323
  420SOL     OW 1078   1.076   0.683   3.326
  420SOL    HW1 1079   0.996   0.622   3.329
  420SOL    HW2 1080   1.157   0.630   3.302
  421SOL     OW 1081   1.227   1.570   2.655
  421SOL    HW1 1082   1.248   1.644   2.590
  421SOL    HW2 1083   1.295   1.570   2.728
  422SOL     OW 1084   0.459   1.152   2.603
  422SOL    HW1 1085   0.388   1.125   2.668
  422SOL    HW2 1086   0.433   1.124   2.510
  423SOL     OW 1087   1.271   1.797   2.453
  423SOL    HW1 1088   1.315   1.861   2.389
  423SOL    HW2 1089   1.221   1.849   2.523
  424SOL     OW 1090   1.032   0.549   1.878
  424SOL    HW1 1091   0.991   0.631   1.839
  424SOL    HW2 1092   1.096   0.575   1.951
  425SOL     OW 1093   0.078   0.556   3.248
  425SOL    HW1 1094   0.170   0.555   3.207
  425SOL    HW2 1095   0.072   0.630   3.315
  426SOL     OW 1096   0.561   0.222   3.009
  426SOL    HW1 1097   0.599   0.138   3.046
  426SOL    HW2 1098   0.473   0.241   3.053
  427SOL     OW 1099   0.866   0.454   2.504
  427SOL    HW1 1100   0.834   0.526   2.442
  427SOL    HW2 1101   0.890   0.373   2.451
  428SOL     OW 1102   1.017   0.039   2.615
  428SOL    HW1 1103   0.945   0.044   2.546
  428SOL    HW2 1104   0.993  -0.030   2.684
  429SOL     OW 1105   1.429   1.173   2.729
  429SOL    HW1 1106   1.374   1.089   2.722
  429SOL    HW2 1107   1.455   1.202   2.637
  430SOL     OW 1108   1.466   0.590   2.854
  430SOL    HW1 1109   1.436   0.495   2.861
  430SOL    HW2 1110   1.539   0.606   2.920
  431SOL     OW 1111   1.857   0.833   2.239
  431SOL    HW1 1112   1.899   0.769   2.303
  431SOL    HW2 1113   1.819   0.782   2.161
  432SOL     OW 1114   0.488   1.385   2.036
  432SOL    HW1 1115   0.401   1.370   2.083
  432SOL    HW2 1116   0.471   1.411   1.941
  433SOL     OW 1117   1.664   1.280   2.519
  433SOL    HW1 1118   1.763   1.288   2.533
  433SOL    HW2 1119   1.619   1.364   2.550
  434SOL     OW 1120   1.390   0.575   1.940
  434SOL    HW1 1121   1.336   0.554   2.021
  434SOL    HW2 1122   1.481   0.534   1.949
  435SOL     OW 1123   0.527   0.256   2.190
  435SOL    HW1 1124   0.554   0.197   2.115
  435SOL    HW2 1125   0.527   0.351   2.159
  436SOL     OW 1126   1.754   1.223   3.450
  436SOL    HW1 1127   1.845   1.184   3.437
  436SOL    HW2 1128   1.762   1.319   3.474
  437SOL     OW 1129   1.064   1.347   3.202
  437SOL    HW1 1130   0.984   1.324   3.257
  437SOL    HW2 1131   1.147   1.321   3.251
  438SOL     OW 1132   1.592   1.629   3.487
  438SOL    HW1 1133   1.619   1.663   3.397
  438SOL    HW2 1134   1.671   1.591   3.533
  439SOL     OW 1135   1.111   1.195   2.962
  439SOL    HW1 1136   1.071   1.239   3.043
  439SOL    HW2 1137   1.070   1.232   2.879
  440SOL     OW 1138   1.638   1.099   2.941
  440SOL    HW1 1139   1.643   1.180   3.000
  440SOL    HW2 1140   1.552   1.101   2.890
  441SOL     OW 1141   0.915   0.089   3.264
  441SOL    HW1 1142   0.940   0.069   3.169
  441SOL    HW2 1143   0.987   0.145   3.306
  442SOL     OW 1144   0.980   1.116   3.581
  442SOL    HW1 1145   0.881   1.122   3.591
  442SOL    HW2 1146   1.003   1.036   3.525
  443SOL     OW 1147   0.705   1.050   2.230
  443SOL    HW1 1148   0.691   1.057   2.329
  443SOL    HW2 1149   0.789   0.999   2.212
  444SOL     OW 1150   0.410   0.813   3.113
  444SOL    HW1 1151   0.496   0.825   3.163
  444SOL    HW2 1152   0.368   0.726   3.140
  445SOL     OW 1153   1.274   0.386   3.124
  445SOL    HW1 1154   1.295   0.460   3.188
  445SOL    HW2 1155   1.185   0.403   3.081
  446SOL     OW 1156   0.064   1.564   3.193
  446SOL    HW1 1157   0.018   1.646   3.159
  446SOL    HW2 1158   0.162   1.583   3.202
  447SOL     OW 1159   0.367   1.100   2.363
  447SOL    HW1 1160   0.360   1.183   2.307
  447SOL    HW2 1161   0.371   1.020   2.303
  448SOL     OW 1162   0.566   0.537   2.727
  448SOL    HW1 1163   0.578   0.603   2.653
  448SOL    HW2 1164   0.612   0.571   2.810
  449SOL     OW 1165   1.252   1.348   2.250
  449SOL    HW1 1166   1.302   1.425   2.290
  449SOL    HW2 1167   1.157   1.350   2.282
  450SOL     OW 1168   1.272   1.445   3.004
  450SOL    HW1 1169   1.319   1.458   3.091
  450SOL    HW2 1170   1.206   1.371   3.013
  451SOL     OW 1171   1.582   0.639   2.334
  451SOL    HW1 1172   1.551   0.700   2.407
  451SOL    HW2 1173   1.632   0.691   2.265
  452SOL     OW 1174   0.354   1.510   3.191
  452SOL    HW1 1175   0.333   1.466   3.104
  452SOL    HW2 1176   0.451   1.536   3.194
  453SOL     OW 1177   0.402   0.751   3.460
  453SOL    HW1 1178   0.470   0.806   3.413
  453SOL    HW2 1179   0.442   0.663   3.487
  454SOL     OW 1180   1.587   0.779   3.532
  454SOL    HW1 1181   1.495   0.817   3.527
  454SOL    HW2 1182   1.647   0.826   3.467
  455SOL     OW 1183   1.013   0.105   3.632
  455SOL    HW1 1184   1.019   0.190   3.580
  455SOL    HW2 1185   1.045   0.029   3.575
  456SOL     OW 1186   0.504   0.050   3.602
  456SOL    HW1 1187   0.462  -0.007   3.532
  456SOL    HW2 1188   0.438   0.119   3.634
  457SOL     OW 1189   0.573   0.870   2.891
  457SOL    HW1 1190   0.617   0.959   2.882
  457SOL    HW2 1191   0.510   0.870   2.968
  458SOL     OW 1192   1.360   0.862   2.907
  458SOL    HW1 1193   1.285   0.862   2.841
  458SOL    HW2 1194   1.397   0.770   2.916
  459SOL     OW 1195   1.209   0.525   2.137
  459SOL    HW1 1196   1.222   0.441   2.191
  459SOL    HW2 1197   1.180   0.599   2.197
  460SOL     OW 1198   0.307   0.213   3.093
  460SOL    HW1 1199   0.284   0.250   3.183
  460SOL    HW2 1200   0.277   0.118   3.087
  461SOL     OW 1201   0.037   1.310   3.144
  461SOL    HW1 1202   0.090   1.261   3.212
  461SOL    HW2 1203   0.059   1.408   3.149
  462SOL     OW 1204   0.732   0.634   2.926
  462SOL    HW1 1205   0.791   0.608   2.850
  462SOL    HW2 1206   0.704   0.730   2.915
  463SOL     OW 1207   1.728   0.935   3.716
  463SOL    HW1 1208   1.682   0.928   3.627
  463SOL    HW2 1209   1.666   0.979   3.782
  464SOL     OW 1210   0.307   0.063   2.480
  464SOL    HW1 1211   0.296   0.157   2.513
  464SOL    HW2 1212   0.302   0.000   2.557
  465SOL     OW 1213   1.622   0.367   2.236
  465SOL    HW1 1214   1.624   0.291   2.300
  465SOL    HW2 1215   1.574   0.444   2.276
  466SOL     OW 1216   1.023   0.766   2.828
  466SOL    HW1 1217   1.038   0.787   2.924
  466SOL    HW2 1218   0.993   0.671   2.819
  467SOL     OW 1219   0.980   1.573   3.562
  467SOL    HW1 1220   0.960   1.617   3.474
  467SOL    HW2 1221   1.019   1.482   3.546
  468SOL     OW 1222   1.859   1.518   3.467
  468SOL    HW1 1223   1.873   1.545   3.372
  468SOL    HW2 1224   1.942   1.540   3.520
  469SOL     OW 1225   0.350   0.898   3.666
  469SOL    HW1 1226   0.426   0.942   3.714
  469SOL    HW2 1227   0.385   0.851   3.584
  470SOL     OW 1228   1.540   0.274   1.987
  470SOL    HW1 1229   1.479   0.199   2.010
  470SOL    HW2 1230   1.562   0.326   2.070
  471SOL     OW 1231   1.303   0.838   1.904
  471SOL    HW1 1232   1.337   0.745   1.919
  471SOL    HW2 1233   1.321   0.865   1.809
  472SOL     OW 1234   1.068   1.333   2.711
  472SOL    HW1 1235   1.075   1.249   2.656
  472SOL    HW2 1236   1.130   1.402   2.675
  473SOL     OW 1237   0.319   0.810   2.811
  473SOL    HW1 1238   0.412   0.846   2.816
  473SOL    HW2 1239   0.313   0.725   2.863
  474SOL     OW 1240   0.339   0.509   2.868
  474SOL    HW1 1241   0.287   0.426   2.851
  474SOL    HW2 1242   0.416   0.514   2.804
  475SOL     OW 1243   1.138   0.380   3.540
  475SOL    HW1 1244   1.093   0.443   3.604
  475SOL    HW2 1245   1.231   0.411   3.523
  476SOL     OW 1246   1.160   0.207   3.339
  476SOL    HW1 1247   1.160   0.271   3.416
  476SOL    HW2 1248   1.188   0.255   3.256
  477SOL     OW 1249   0.008   1.326   2.062
  477SOL    HW1 1250  -0.085   1.347   2.031
  477SOL    HW2 1251   0.018   1.227   2.075
  478SOL     OW 1252   0.088   1.801   2.789
  478SOL    HW1 1253   0.046   1.715   2.762
  478SOL    HW2 1254   0.182   1.804   2.755
  479SOL     OW 1255   0.504   1.568   2.772
  479SOL    HW1 1256   0.570   1.642   2.781
  479SOL    HW2 1257   0.548   1.489   2.730
  480SOL     OW 1258   1.002   0.796   3.100
  480SOL    HW1 1259   1.043   0.764   3.186
  480SOL    HW2 1260   0.906   0.769   3.097
  481SOL     OW 1261   0.040   0.544   2.976
  481SOL    HW1 1262   0.125   0.511   2.935
  481SOL    HW2 1263   0.053   0.559   3.074
  482SOL     OW 1264   0.189   0.520   3.584
  482SOL    HW1 1265   0.248   0.480   3.514
  482SOL    HW2 1266   0.131   0.591   3.543
  483SOL     OW 1267   1.369   0.950   3.522
  483SOL    HW1 1268   1.408   1.039   3.542
  483SOL    HW2 1269   1.379   0.930   3.425
  484SOL     OW 1270   0.815   0.572   2.187
  484SOL    HW1 1271   0.822   0.483   2.141
  484SOL    HW2 1272   0.721   0.606   2.179
  485SOL     OW 1273   1.657   0.604   3.068
  485SOL    HW1 1274   1.619   0.535   3.130
  485SOL    HW2 1275   1.739   0.568   3.024
  486SOL     OW 1276   0.252   1.564   3.606
  486SOL    HW1 1277   0.222   1.621   3.682
  486SOL    HW2 1278   0.245   1.467   3.632
  487SOL     OW 1279   0.671   0.464   3.131
  487SOL    HW1 1280   0.637   0.375   3.101
  487SOL    HW2 1281   0.697   0.518   3.051
  488SOL     OW 1282   0.930   1.678   3.327
  488SOL    HW1 1283   0.906   1.660   3.232
  488SOL    HW2 1284   0.960   1.772   3.337
  489SOL     OW 1285   0.473   0.500   2.053
  489SOL    HW1 1286   0.534   0.580   2.057
  489SOL    HW2 1287   0.378   0.531   2.060
  490SOL     OW 1288   0.159   1.137   3.328
  490SOL    HW1 1289   0.181   1.076   3.404
  490SOL    HW2 1290   0.169   1.088   3.242
  491SOL     OW 1291   1.347   1.059   3.096
  491SOL    HW1 1292   1.371   0.996   3.022
  491SOL    HW2 1293   1.257   1.099   3.078
  492SOL     OW 1294   1.302   0.855   2.171
  492SOL    HW1 1295   1.216   0.824   2.213
  492SOL    HW2 1296   1.298   0.841   2.072
  493SOL     OW 1297   1.759   1.747   3.016
  493SOL    HW1 1298   1.820   1.777   2.943
  493SOL    HW2 1299   1.721   1.658   2.994
  494SOL     OW 1300   1.252   1.731   2.990
  494SOL    HW1 1301   1.336   1.736   2.936
  494SOL    HW2 1302   1.229   1.635   3.008
  495SOL     OW 1303   0.083   1.258   2.884
  495SOL    HW1 1304   0.078   1.257   2.984
  495SOL    HW2 1305   0.000   1.217   2.846
  496SOL     OW 1306   0.688   1.662   3.578
  496SOL    HW1 1307   0.632   1.743   3.587
  496SOL    HW2 1308   0.740   1.666   3.492
  497SOL     OW 1309   1.726   0.135   2.385
  497SOL    HW1 1310   1.799   0.118   2.318
  497SOL    HW2 1311   1.695   0.048   2.423
  498SOL     OW 1312   1.388   1.573   2.339
  498SOL    HW1 1313   1.455   1.585   2.265
  498SOL    HW2 1314   1.348   1.662   2.362
  499SOL     OW 1315   0.130   1.794   3.713
  499SOL    HW1 1316   0.089   1.720   3.766
  499SOL    HW2 1317   0.194   1.845   3.771
  500SOL     OW 1318   1.280   0.927   2.534
  500SOL    HW1 1319   1.340   0.846   2.536
  500SOL    HW2 1320   1.320   0.996   2.474
  501SOL     OW 1321   0.830   1.273   3.284
  501SOL    HW1 1322   0.825   1.306   3.379
  501SOL    HW2 1323   0.744   1.292   3.238
  502SOL     OW 1324   0.672   1.616   2.016
  502SOL    HW1 1325   0.681   1.626   1.917
  502SOL    HW2 1326   0.632   1.527   2.037
  503SOL     OW 1327   1.650   1.720   3.256
  503SOL    HW1 1328   1.703   1.730   3.172
  503SOL    HW2 1329   1.623   1.810   3.290
  504SOL     OW 1330   1.841   0.175   2.825
  504SOL    HW1 1331   1.880   0.090   2.789
  504SOL    HW2 1332   1.743   0.177   2.806
  505SOL     OW 1333   0.263   0.326   2.582
  505SOL    HW1 1334   0.184   0.377   2.548
  505SOL    HW2 1335   0.254   0.311   2.680
  506SOL     OW 1336   1.194   1.612   1.893
  506SOL    HW1 1337   1.200   1.519   1.930
  506SOL    HW2 1338   1.135   1.612   1.813
  507SOL     OW 1339   0.822   1.002   3.234
  507SOL    HW1 1340   0.862   1.001   3.142
  507SOL    HW2 1341   0.832   1.094   3.274
  508SOL     OW 1342   0.916   0.910   2.153
  508SOL    HW1 1343   0.979   0.948   2.085
  508SOL    HW2 1344   0.956   0.827   2.192
  509SOL     OW 1345   1.504   1.607   1.906
  509SOL    HW1 1346   1.412   1.644   1.913
  509SOL    HW2 1347   1.542   1.627   1.816
  510SOL     OW 1348   0.372   1.288   3.352
  510SOL    HW1 1349   0.359   1.381   3.318
  510SOL    HW2 1350   0.288   1.236   3.339
  511SOL     OW 1351   1.614   1.292   3.151
  511SOL    HW1 1352   1.674   1.295   3.231
  511SOL    HW2 1353   1.539   1.356   3.164
  512SOL     OW 1354   1.039   1.098   2.558
  512SOL    HW1 1355   0.969   1.051   2.612
  512SOL    HW2 1356   1.098   1.030   2.515
  513SOL     OW 1357   1.014   0.236   2.833
  513SOL    HW1 1358   1.006   0.200   2.740
  513SOL    HW2 1359   1.012   0.160   2.898
  514SOL     OW 1360   0.590   1.487   2.353
  514SOL    HW1 1361   0.632   1.429   2.283
  514SOL    HW2 1362   0.546   1.566   2.309
  515SOL     OW 1363   1.709   0.385   3.243
  515SOL    HW1 1364   1.782   0.454   3.247
  515SOL    HW2 1365   1.737   0.310   3.184
  516SOL     OW 1366   0.255   1.348   2.152
  516SOL    HW1 1367   0.159   1.349   2.125
  516SOL    HW2 1368   0.267   1.401   2.236
  517SOL     OW 1369   0.105   1.013   3.588
  517SOL    HW1 1370   0.028   0.980   3.642
  517SOL    HW2 1371   0.190   0.983   3.630
  518SOL     OW 1372   0.672   0.203   3.351
  518SOL    HW1 1373   0.762   0.187   3.311
  518SOL    HW2 1374   0.680   0.208   3.450
  519SOL     OW 1375   0.075   0.345   1.895
  519SOL    HW1 1376  -0.017   0.317   1.866
  519SOL    HW2 1377   0.106   0.422   1.839
  520SOL     OW 1378   1.440   0.856   3.260
  520SOL    HW1 1379   1.383   0.908   3.197
  520SOL    HW2 1380   1.536   0.868   3.236
  521SOL     OW 1381   0.072   0.166   2.180
  521SOL    HW1 1382   0.055   0.249   2.126
  521SOL    HW2 1383   0.162   0.129   2.158
  522SOL     OW 1384   1.183   1.335   1.981
  522SOL    HW1 1385   1.084   1.324   1.983
  522SOL    HW2 1386   1.217   1.350   2.074
  523SOL     OW 1387   0.613   0.842   3.293
  523SOL    HW1 1388   0.669   0.923   3.276
  523SOL    HW2 1389   0.672   0.762   3.296
  524SOL     OW 1390   1.493   1.767   2.821
  524SOL    HW1 1391   1.526   1.831   2.752
  524SOL    HW2 1392   1.559   1.761   2.896
  525SOL     OW 1393   0.716   0.565   3.570
  525SOL    HW1 1394   0.735   0.630   3.644
  525SOL    HW2 1395   0.776   0.485   3.579
  526SOL     OW 1396   1.450   1.220   3.495
  526SOL    HW1 1397   1.441   1.210   3.594
  526SOL    HW2 1398   1.546   1.213   3.469
  527SOL     OW 1399   0.390   1.741   3.422
  527SOL    HW1 1400   0.299   1.782   3.420
  527SOL    HW2 1401   0.383   1.647   3.454
  528SOL     OW 1402   1.674   0.883   3.116
  528SOL    HW1 1403   1.647   0.794   3.079
  528SOL    HW2 1404   1.675   0.951   3.043
  529SOL     OW 1405   1.225   0.325   2.311
  529SOL    HW1 1406   1.290   0.251   2.300
  529SOL    HW2 1407   1.245   0.375   2.395
  530SOL     OW 1408   0.594   0.745   2.514
  530SOL    HW1 1409   0.644   0.830   2.495
  530SOL    HW2 1410   0.506   0.747   2.466
  531SOL     OW 1411   1.777   0.342   3.504
  531SOL    HW1 1412   1.760   0.373   3.410
  531SOL    HW2 1413   1.693   0.305   3.542
  532SOL     OW 1414   1.730   0.934   3.379
  532SOL    HW1 1415   1.768   1.025   3.394
  532SOL    HW2 1416   1.722   0.917   3.280
  533SOL     OW 1417   0.859   1.374   1.878
  533SOL    HW1 1418   0.813   1.389   1.966
  533SOL    HW2 1419   0.903   1.459   1.848
  534SOL     OW 1420   0.661   1.790   2.815
  534SOL    HW1 1421   0.615   1.878   2.802
  534SOL    HW2 1422   0.760   1.802   2.808
  535SOL     OW 1423   0.859   0.956   2.723
  535SOL    HW1 1424   0.913   0.887   2.771
  535SOL    HW2 1425   0.827   1.025   2.789
  536SOL     OW 1426   1.083   0.984   1.949
  536SOL    HW1 1427   1.060   1.037   1.867
  536SOL    HW2 1428   1.164   0.928   1.930
  537SOL     OW 1429   1.861   1.569   2.713
  537SOL    HW1 1430   1.790   1.557   2.643
  537SOL    HW2 1431   1.862   1.490   2.773
  538SOL     OW 1432   0.221   1.314   3.706
  538SOL    HW1 1433   0.156   1.241   3.685
  538SOL    HW2 1434   0.225   1.328   3.804
  539SOL     OW 1435   0.079   1.240   2.515
  539SOL    HW1 1436   0.078   1.193   2.603
  539SOL    HW2 1437   0.161   1.212   2.464
  540SOL     OW 1438   0.672   1.391   3.486
  540SOL    HW1 1439   0.594   1.341   3.524
  540SOL    HW2 1440   0.669   1.486   3.517
  541SOL     OW 1441   1.824   0.192   3.089
  541SOL    HW1 1442   1.820   0.102   3.133
  541SOL    HW2 1443   1.827   0.181   2.990
  542SOL     OW 1444   0.428   0.424   2.382
  542SOL    HW1 1445   0.458   0.352   2.320
  542SOL    HW2 1446   0.389   0.384   2.465
  543SOL     OW 1447   1.705   1.487   2.966
  543SOL    HW1 1448   1.612   1.462   2.939
  543SOL    HW2 1449   1.731   1.437   3.048
  544SOL     OW 1450   0.317   0.547   3.142
  544SOL    HW1 1451   0.355   0.488   3.214
  544SOL    HW2 1452   0.357   0.521   3.054
  545SOL     OW 1453   0.812   1.586   2.549
  545SOL    HW1 1454   0.844   1.596   2.455
  545SOL    HW2 1455   0.733   1.524   2.551
  546SOL     OW 1456   1.424   0.214   2.974
  546SOL    HW1 1457   1.476   0.149   3.029
  546SOL    HW2 1458   1.375   0.277   3.035
  547SOL     OW 1459   1.001   0.034   3.016
  547SOL    HW1 1460   0.938  -0.038   2.985
  547SOL    HW2 1461   1.094  -0.002   3.016
  548SOL     OW 1462   0.770   1.330   2.163
  548SOL    HW1 1463   0.724   1.243   2.180
  548SOL    HW2 1464   0.861   1.327   2.204
  549SOL     OW 1465   0.618   1.567   3.146
  549SOL    HW1 1466   0.613   1.649   3.203
  549SOL    HW2 1467   0.707   1.564   3.101
  550SOL     OW 1468   1.352   0.052   2.030
  550SOL    HW1 1469   1.387   0.011   1.946
  550SOL    HW2 1470   1.262   0.014   2.050
  551SOL     OW 1471   1.300   0.453   2.553
  551SOL    HW1 1472   1.241   0.533   2.557
  551SOL    HW2 1473   1.315   0.418   2.646
  552SOL     OW 1474   1.593   0.221   2.744
  552SOL    HW1 1475   1.509   0.220   2.798
  552SOL    HW2 1476   1.595   0.304   2.688
  553SOL     OW 1477   0.039   1.077   2.162
  553SOL    HW1 1478   0.138   1.066   2.153
  553SOL    HW2 1479  -0.001   0.991   2.194
  554SOL     OW 1480   0.875   1.646   2.199
  554SOL    HW1 1481   0.798   1.611   2.145
  554SOL    HW2 1482   0.843   1.717   2.261
  555SOL     OW 1483   0.230   0.628   3.837
  555SOL    HW1 1484   0.137   0.626   3.874
  555SOL    HW2 1485   0.231   0.589   3.745
  556SOL     OW 1486   0.225   0.275   4.720
  556SOL    HW1 1487   0.260   0.258   4.812
  556SOL    HW2 1488   0.137   0.230   4.708
  557SOL     OW 1489   0.019   0.368   4.371
  557SOL    HW1 1490  -0.063   0.411   4.410
  557SOL    HW2 1491  -0.009   0.295   4.308
  558SOL     OW 1492   0.569   1.275   4.889
  558SOL    HW1 1493   0.476   1.268   4.852
  558SOL    HW2 1494   0.580   1.364   4.933
  559SOL     OW 1495   1.555   1.511   4.427
  559SOL    HW1 1496   1.498   1.495   4.508
  559SOL    HW2 1497   1.496   1.521   4.347
  560SOL     OW 1498   1.135   0.703   4.441
  560SOL    HW1 1499   1.192   0.781   4.416
  560SOL    HW2 1500   1.075   0.729   4.517
  561SOL     OW 1501   1.755   0.607   3.955
  561SOL    HW1 1502   1.743   0.594   3.856
  561SOL    HW2 1503   1.725   0.526   4.004
  562SOL     OW 1504   0.768   1.144   4.747
  562SOL    HW1 1505   0.690   1.161   4.807
  562SOL    HW2 1506   0.802   1.231   4.711
  563SOL     OW 1507   0.685   1.012   4.389
  563SOL    HW1 1508   0.754   0.996   4.459
  563SOL    HW2 1509   0.612   1.069   4.427
  564SOL     OW 1510   0.335   1.435   4.785
  564SOL    HW1 1511   0.257   1.404   4.732
  564SOL    HW2 1512   0.393   1.493   4.728
  565SOL     OW 1513   1.603   0.447   4.461
  565SOL    HW1 1514   1.529   0.493   4.411
  565SOL    HW2 1515   1.654   0.515   4.514
  566SOL     OW 1516   0.231   1.713   4.207
  566SOL    HW1 1517   0.265   1.790   4.261
  566SOL    HW2 1518   0.275   1.713   4.117
  567SOL     OW 1519   0.230   1.434   4.262
  567SOL    HW1 1520   0.204   1.530   4.262
  567SOL    HW2 1521   0.159   1.380   4.307
  568SOL     OW 1522   0.240   1.091   4.610
  568SOL    HW1 1523   0.254   1.007   4.662
  568SOL    HW2 1524   0.185   1.155   4.665
  569SOL     OW 1525   0.620   1.786   5.163
  569SOL    HW1 1526   0.528   1.769   5.198
  569SOL    HW2 1527   0.648   1.878   5.189
  570SOL     OW 1528   0.606   0.964   3.847
  570SOL    HW1 1529   0.613   1.048   3.793
  570SOL    HW2 1530   0.652   0.977   3.935
  571SOL     OW 1531   0.122   0.643   4.287
  571SOL    HW1 1532   0.077   0.555   4.304
  571SOL    HW2 1533   0.121   0.697   4.371
  572SOL     OW 1534   1.842   1.767   4.083
  572SOL    HW1 1535   1.896   1.738   4.163
  572SOL    HW2 1536   1.872   1.857   4.054
  573SOL     OW 1537   0.027   1.596   3.841
  573SOL    HW1 1538   0.008   1.500   3.862
  573SOL    HW2 1539  -0.006   1.654   3.916
  574SOL     OW 1540   1.689   0.922   4.336
  574SOL    HW1 1541   1.784   0.893   4.344
  574SOL    HW2 1542   1.681   0.987   4.261
  575SOL     OW 1543   1.641   1.108   4.156
  575SOL    HW1 1544   1.727   1.110   4.104
  575SOL    HW2 1545   1.655   1.155   4.244
  576SOL     OW 1546   0.613   1.365   4.450
  576SOL    HW1 1547   0.564   1.278   4.459
  576SOL    HW2 1548   0.590   1.408   4.363
  577SOL     OW 1549   0.809   0.004   4.226
  577SOL    HW1 1550   0.849   0.095   4.217
  577SOL    HW2 1551   0.709   0.012   4.232
  578SOL     OW 1552   0.197   0.976   4.988
  578SOL    HW1 1553   0.286   0.931   4.974
  578SOL    HW2 1554   0.124   0.911   4.969
  579SOL     OW 1555   1.525   0.999   3.914
  579SOL    HW1 1556   1.462   0.923   3.927
  579SOL    HW2 1557   1.573   1.017   4.000
  580SOL     OW 1558   1.466   1.417   4.677
  580SOL    HW1 1559   1.407   1.423   4.757
  580SOL    HW2 1560   1.451   1.329   4.631
  581SOL     OW 1561   1.667   1.714   4.296
  581SOL    HW1 1562   1.626   1.691   4.208
  581SOL    HW2 1563   1.649   1.640   4.361
  582SOL     OW 1564   0.598   0.729   3.994
  582SOL    HW1 1565   0.622   0.798   3.926
  582SOL    HW2 1566   0.520   0.762   4.048
  583SOL     OW 1567   1.281   0.345   4.668
  583SOL    HW1 1568   1.195   0.295   4.655
  583SOL    HW2 1569   1.343   0.291   4.724
  584SOL     OW 1570   1.576   1.662   4.031
  584SOL    HW1 1571   1.665   1.708   4.034
  584SOL    HW2 1572   1.555   1.638   3.936
  585SOL     OW 1573   0.991   0.410   4.966
  585SOL    HW1 1574   0.914   0.444   5.020
  585SOL    HW2 1575   0.957   0.359   4.887
  586SOL     OW 1576   1.041   0.701   4.153
  586SOL    HW1 1577   1.067   0.697   4.249
  586SOL    HW2 1578   0.956   0.650   4.139
  587SOL     OW 1579   0.076   0.811   4.513
  587SOL    HW1 1580   0.175   0.799   4.522
  587SOL    HW2 1581   0.052   0.906   4.534
  588SOL     OW 1582   0.130   1.821   5.295
  588SOL    HW1 1583   0.120   1.806   5.394
  588SOL    HW2 1584   0.044   1.857   5.259
  589SOL     OW 1585   0.865   0.348   3.919
  589SOL    HW1 1586   0.924   0.411   3.870
  589SOL    HW2 1587   0.884   0.254   3.890
  590SOL     OW 1588   1.362   1.144   4.269
  590SOL    HW1 1589   1.445   1.115   4.221
  590SOL    HW2 1590   1.313   1.211   4.213
  591SOL     OW 1591   0.550   0.196   4.609
  591SOL    HW1 1592   0.545   0.191   4.709
  591SOL    HW2 1593   0.552   0.292   4.580
  592SOL     OW 1594   1.008   1.456   4.201
  592SOL    HW1 1595   0.962   1.528   4.149
  592SOL    HW2 1596   1.004   1.476   4.299
  593SOL     OW 1597   0.351   1.801   4.577
  593SOL    HW1 1598   0.401   1.715   4.583
  593SOL    HW2 1599   0.416   1.878   4.574
  594SOL     OW 1600   1.795   1.066   4.597
  594SOL    HW1 1601   1.733   1.051   4.521
  594SOL    HW2 1602   1.743   1.077   4.682
  595SOL     OW 1603   0.321   0.943   3.966
  595SOL    HW1 1604   0.403   0.982   3.924
  595SOL    HW2 1605   0.294   0.861   3.917
  596SOL     OW 1606   1.458   0.735   4.452
  596SOL    HW1 1607   1.453   0.670   4.527
  596SOL    HW2 1608   1.538   0.794   4.465
  597SOL     OW 1609   1.111   1.776   3.961
  597SOL    HW1 1610   1.051   1.714   4.011
  597SOL    HW2 1611   1.142   1.732   3.876
  598SOL     OW 1612   1.632   1.377   3.805
  598SOL    HW1 1613   1.600   1.471   3.795
  598SOL    HW2 1614   1.556   1.314   3.793
  599SOL     OW 1615   0.464   1.743   4.047
  599SOL    HW1 1616   0.497   1.782   4.133
  599SOL    HW2 1617   0.540   1.736   3.982
  600SOL     OW 1618   1.400   0.107   4.150
  600SOL    HW1 1619   1.376   0.070   4.060
  600SOL    HW2 1620   1.499   0.123   4.154
  601SOL     OW 1621   0.249   1.785   4.965
  601SOL    HW1 1622   0.306   1.720   5.015
  601SOL    HW2 1623   0.233   1.752   4.872
  602SOL     OW 1624   0.940   1.698   4.628
  602SOL    HW1 1625   1.020   1.641   4.649
  602SOL    HW2 1626   0.891   1.658   4.551
  603SOL     OW 1627   0.382   0.700   4.204
  603SOL    HW1 1628   0.427   0.610   4.201
  603SOL    HW2 1629   0.288   0.689   4.237
  604SOL     OW 1630   0.614   0.122   3.841
  604SOL    HW1 1631   0.712   0.100   3.848
  604SOL    HW2 1632   0.583   0.105   3.748
  605SOL     OW 1633   0.803   1.402   4.648
  605SOL    HW1 1634   0.893   1.416   4.606
  605SOL    HW2 1635   0.732   1.404   4.577
  606SOL     OW 1636   0.922   0.503   4.623
  606SOL    HW1 1637   0.897   0.494   4.527
  606SOL    HW2 1638   0.970   0.421   4.654
  607SOL     OW 1639   0.539   0.064   4.236
  607SOL    HW1 1640   0.458   0.065   4.294
  607SOL    HW2 1641   0.542   0.147   4.181
  608SOL     OW 1642   1.434   1.188   3.765
  608SOL    HW1 1643   1.466   1.112   3.822
  608SOL    HW2 1644   1.342   1.215   3.795
  609SOL     OW 1645   0.297   0.035   3.895
  609SOL    HW1 1646   0.346   0.119   3.874
  609SOL    HW2 1647   0.359  -0.030   3.940
  610SOL     OW 1648   0.935   0.236   4.204
  610SOL    HW1 1649   0.887   0.277   4.126
  610SOL    HW2 1650   1.034   0.234   4.185
  611SOL     OW 1651   1.227   1.570   4.517
  611SOL    HW1 1652   1.248   1.644   4.452
  611SOL    HW2 1653   1.295   1.570   4.590
  612SOL     OW 1654   0.459   1.152   4.465
  612SOL    HW1 1655   0.388   1.125   4.530
  612SOL    HW2 1656   0.433   1.124   4.372
  613SOL     OW 1657   1.271   1.797   4.315
  613SOL    HW1 1658   1.315   1.861   4.251
  613SOL    HW2 1659   1.221   1.849   4.385
  614SOL     OW 1660   1.032   0.549   3.740
  614SOL    HW1 1661   0.991   0.631   3.701
  614SOL    HW2 1662   1.096   0.575   3.813
  615SOL     OW 1663   0.561   0.222   4.871
  615SOL    HW1 1664   0.599   0.138   4.908
  615SOL    HW2 1665   0.473   0.241   4.915
  616SOL     OW 1666   0.866   0.454   4.366
  616SOL    HW1 1667   0.834   0.526   4.304
  616SOL    HW2 1668   0.890   0.373   4.313
  617SOL     OW 1669   1.017   0.039   4.477
  617SOL    HW1 1670   0.945   0.044   4.408
  617SOL    HW2 1671   0.993  -0.030   4.546
  618SOL     OW 1672   1.429   1.173   4.591
  618SOL    HW1 1673   1.374   1.089   4.584
  618SOL    HW2 1674   1.455   1.202   4.499
  619SOL     OW 1675   1.466   0.590   4.716
  619SOL    HW1 1676   1.436   0.495   4.723
  619SOL    HW2 1677   1.539   0.606   4.782
  620SOL     OW 1678   1.857   0.833   4.101
  620SOL    HW1 1679   1.899   0.769   4.165
  620SOL    HW2 1680   1.819   0.782   4.023
  621SOL     OW 1681   0.488   1.385   3.898
  621SOL    HW1 1682   0.401   1.370   3.945
  621SOL    HW2 1683   0.471   1.411   3.803
  622SOL     OW 1684   1.664   1.280   4.381
  622SOL    HW1 1685   1.763   1.288   4.395
  622SOL    HW2 1686   1.619   1.364   4.412
  623SOL     OW 1687   1.390   0.575   3.802
  623SOL    HW1 1688   1.336   0.554   3.883
  623SOL    HW2 1689   1.481   0.534   3.811
  624SOL     OW 1690   0.527   0.256   4.052
  624SOL    HW1 1691   0.554   0.197   3.977
  624SOL    HW2 1692   0.527   0.351   4.021
  625SOL     OW 1693   1.111   1.195   4.824
  625SOL    HW1 1694   1.071   1.239   4.905
  625SOL    HW2 1695   1.070   1.232   4.741
  626SOL     OW 1696   1.638   1.099   4.803
  626SOL    HW1 1697   1.643   1.180   4.862
  626SOL    HW2 1698   1.552   1.101   4.752
  627SOL     OW 1699   0.705   1.050   4.092
  627SOL    HW1 1700   0.691   1.057   4.191
  627SOL    HW2 1701   0.789   0.999   4.074
  628SOL     OW 1702   0.410   0.813   4.975
  628SOL    HW1 1703   0.496   0.825   5.025
  628SOL    HW2 1704   0.368   0.726   5.002
  629SOL     OW 1705   1.274   0.386   4.986
  629SOL    HW1 1706   1.295   0.460   5.050
  629SOL    HW2 1707   1.185   0.403   4.943
  630SOL     OW 1708   0.367   1.100   4.225
  630SOL    HW1 1709   0.360   1.183   4.169
  630SOL    HW2 1710   0.371   1.020   4.165
  631SOL     OW 1711   0.566   0.537   4.589
  631SOL    HW1 1712   0.578   0.603   4.515
  631SOL    HW2 1713   0.612   0.571   4.672
  632SOL     OW 1714   1.252   1.348   4.112
  632SOL    HW1 1715   1.302   1.425   4.152
  632SOL    HW2 1716   1.157   1.350   4.144
  633SOL     OW 1717   1.272   1.445   4.866
  633SOL    HW1 1718   1.319   1.458   4.953
  633SOL    HW2 1719   1.206   1.371   4.875
  634SOL     OW 1720   1.582   0.639   4.196
  634SOL    HW1 1721   1.551   0.700   4.269
  634SOL    HW2 1722   1.632   0.691   4.127
  635SOL     OW 1723   0.354   1.510   5.053
  635SOL    HW1 1724   0.333   1.466   4.966
  635SOL    HW2 1725   0.451   1.536   5.056
  636SOL     OW 1726   0.573   0.870   4.753
  636SOL    HW1 1727   0.617   0.959   4.744
  636SOL    HW2 1728   0.510   0.870   4.830
  637SOL     OW 1729   1.360   0.862   4.769
  637SOL    HW1 1730   1.285   0.862   4.703
  637SOL    HW2 1731   1.397   0.770   4.778
  638SOL     OW 1732   1.209   0.525   3.999
  638SOL    HW1 1733   1.222   0.441   4.053
  638SOL    HW2 1734   1.180   0.599   4.059
  639SOL     OW 1735   0.307   0.213   4.955
  639SOL    HW1 1736   0.284   0.250   5.045
  639SOL    HW2 1737   0.277   0.118   4.949
  640SOL     OW 1738   0.037   1.310   5.006
  640SOL    HW1 1739   0.090   1.261   5.074
  640SOL    HW2 1740   0.059   1.408   5.011
  641SOL     OW 1741   0.732   0.634   4.788
  641SOL    HW1 1742   0.791   0.608   4.712
  641SOL    HW2 1743   0.704   0.730   4.777
  642SOL     OW 1744   0.307   0.063   4.342
  642SOL    HW1 1745   0.296   0.157   4.375
  642SOL    HW2 1746   0.302   0.000   4.419
  643SOL     OW 1747   1.622   0.367   4.098
  643SOL    HW1 1748   1.624   0.291   4.162
  643SOL    HW2 1749   1.574   0.444   4.138
  644SOL     OW 1750   1.023   0.766   4.690
  644SOL    HW1 1751   1.038   0.787   4.786
  644SOL    HW2 1752   0.993   0.671   4.681
  645SOL     OW 1753   1.540   0.274   3.849
  645SOL    HW1 1754   1.479   0.199   3.872
  645SOL    HW2 1755   1.562   0.326   3.932
  646SOL     OW 1756   1.303   0.838   3.766
  646SOL    HW1 1757   1.337   0.745   3.781
  646SOL    HW2 1758   1.321   0.865   3.671
  647SOL     OW 1759   1.068   1.333   4.573
  647SOL    HW1 1760   1.075   1.249   4.518
  647SOL    HW2 1761   1.130   1.402   4.537
  648SOL     OW 1762   0.319   0.810   4.673
  648SOL    HW1 1763   0.412   0.846   4.678
  648SOL    HW2 1764   0.313   0.725   4.725
  649SOL     OW 1765   0.339   0.509   4.730
  649SOL    HW1 1766   0.287   0.426   4.713
  649SOL    HW2 1767   0.416   0.514   4.666
  650SOL     OW 1768   1.160   0.207   5.201
  650SOL    HW1 1769   1.160   0.271   5.278
  650SOL    HW2 1770   1.188   0.255   5.118
  651SOL     OW 1771   0.008   1.326   3.924
  651SOL    HW1 1772  -0.085   1.347   3.893
  651SOL    HW2 1773   0.018   1.227   3.937
  652SOL     OW 1774   0.088   1.801   4.651
  652SOL    HW1 1775   0.046   1.715   4.624
  652SOL    HW2 1776   0.182   1.804   4.617
  653SOL     OW 1777   0.504   1.568   4.634
  653SOL    HW1 1778   0.570   1.642   4.643
  653SOL    HW2 1779   0.548   1.489   4.592
  654SOL     OW 1780   1.002   0.796   4.962
  654SOL    HW1 1781   1.043   0.764   5.048
  654SOL    HW2 1782   0.906   0.769   4.959
  655SOL     OW 1783   0.040   0.544   4.838
  655SOL    HW1 1784   0.125   0.511   4.797
  655SOL    HW2 1785   0.053   0.559   4.936
  656SOL     OW 1786   0.815   0.572   4.049
  656SOL    HW1 1787   0.822   0.483   4.003
  656SOL    HW2 1788   0.721   0.606   4.041
  657SOL     OW 1789   1.657   0.604   4.930
  657SOL    HW1 1790   1.619   0.535   4.992
  657SOL    HW2 1791   1.739   0.568   4.886
  658SOL     OW 1792   0.671   0.464   4.993
  658SOL    HW1 1793   0.637   0.375   4.963
  658SOL    HW2 1794   0.697   0.518   4.913
  659SOL     OW 1795   0.930   1.678   5.189
  659SOL    HW1 1796   0.906   1.660   5.094
  659SOL    HW2 1797   0.960   1.772   5.199
  660SOL     OW 1798   0.473   0.500   3.915
  660SOL    HW1 1799   0.534   0.580   3.919
  660SOL    HW2 1800   0.378   0.531   3.922
  661SOL     OW 1801   1.347   1.059   4.958
  661SOL    HW1 1802   1.371   0.996   4.884
  661SOL    HW2 1803   1.257   1.099   4.940
  662SOL     OW 1804   1.302   0.855   4.033
  662SOL    HW1 1805   1.216   0.824   4.075
  662SOL    HW2 1806   1.298   0.841   3.934
  663SOL     OW 1807   1.759   1.747   4.878
  663SOL    HW1 1808   1.820   1.777   4.805
  663SOL    HW2 1809   1.721   1.658   4.856
  664SOL     OW 1810   1.252   1.731   4.852
  664SOL    HW1 1811   1.336   1.736   4.798
  664SOL    HW2 1812   1.229   1.635   4.870
  665SOL     OW 1813   0.083   1.258   4.746
  665SOL    HW1 1814   0.078   1.257   4.846
  665SOL    HW2 1815   0.000   1.217   4.708
  666SOL     OW 1816   1.726   0.135   4.247
  666SOL    HW1 1817   1.799   0.118   4.180
  666SOL    HW2 1818   1.695   0.048   4.285
  667SOL     OW 1819   1.388   1.573   4.201
  667SOL    HW1 1820   1.455   1.585   4.127
  667SOL    HW2 1821   1.348   1.662   4.224
  668SOL     OW 1822   1.280   0.927   4.396
  668SOL    HW1 1823   1.340   0.846   4.398
  668SOL    HW2 1824   1.320   0.996   4.336
  669SOL     OW 1825   0.672   1.616   3.878
  669SOL    HW1 1826   0.681   1.626   3.779
  669SOL    HW2 1827   0.632   1.527   3.899
  670SOL     OW 1828   1.650   1.720   5.118
  670SOL    HW1 1829   1.703   1.730   5.034
  670SOL    HW2 1830   1.623   1.810   5.152
  671SOL     OW 1831   1.841   0.175   4.687
  671SOL    HW1 1832   1.880   0.090   4.651
  671SOL    HW2 1833   1.743   0.177   4.668
  672SOL     OW 1834   0.263   0.326   4.444
  672SOL    HW1 1835   0.184   0.377   4.410
  672SOL    HW2 1836   0.254   0.311   4.542
  673SOL     OW 1837   1.194   1.612   3.755
  673SOL    HW1 1838   1.200   1.519   3.792
  673SOL    HW2 1839   1.135   1.612   3.675
  674SOL     OW 1840   0.822   1.002   5.096
  674SOL    HW1 1841   0.862   1.001   5.004
  674SOL    HW2 1842   0.832   1.094   5.136
  675SOL     OW 1843   0.916   0.910   4.015
  675SOL    HW1 1844   0.979   0.948   3.947
  675SOL    HW2 1845   0.956   0.827   4.054
  676SOL     OW 1846   1.504   1.607   3.768
  676SOL    HW1 1847   1.412   1.644   3.775
  676SOL    HW2 1848   1.542   1.627   3.678
  677SOL     OW 1849   1.039   1.098   4.420
  677SOL    HW1 1850   0.969   1.051   4.474
  677SOL    HW2 1851   1.098   1.030   4.377
  678SOL     OW 1852   1.014   0.236   4.695
  678SOL    HW1 1853   1.006   0.200   4.602
  678SOL    HW2 1854   1.012   0.160   4.760
  679SOL     OW 1855   0.590   1.487   4.215
  679SOL    HW1 1856   0.632   1.429   4.145
  679SOL    HW2 1857   0.546   1.566   4.171
  680SOL     OW 1858   1.709   0.385   5.105
  680SOL    HW1 1859   1.782   0.454   5.109
  680SOL    HW2 1860   1.737   0.310   5.046
  681SOL     OW 1861   0.255   1.348   4.014
  681SOL    HW1 1862   0.159   1.349   3.987
  681SOL    HW2 1863   0.267   1.401   4.098
  682SOL     OW 1864   0.075   0.345   3.757
  682SOL    HW1 1865  -0.017   0.317   3.728
  682SOL    HW2 1866   0.106   0.422   3.701
  683SOL     OW 1867   0.072   0.166   4.042
  683SOL    HW1 1868   0.055   0.249   3.988
  683SOL    HW2 1869   0.162   0.129   4.020
  684SOL     OW 1870   1.183   1.335   3.843
  684SOL    HW1 1871   1.084   1.324   3.845
  684SOL    HW2 1872   1.217   1.350   3.936
  685SOL     OW 1873   1.493   1.767   4.683
  685SOL    HW1 1874   1.526   1.831   4.614
  685SOL    HW2 1875   1.559   1.761   4.758
  686SOL     OW 1876   1.450   1.220   5.357
  686SOL    HW1 1877   1.441   1.210   5.456
  686SOL    HW2 1878   1.546   1.213   5.331
  687SOL     OW 1879   1.674   0.883   4.978
  687SOL    HW1 1880   1.647   0.794   4.941
  687SOL    HW2 1881   1.675   0.951   4.905
  688SOL     OW 1882   1.225   0.325   4.173
  688SOL    HW1 1883   1.290   0.251   4.162
  688SOL    HW2 1884   1.245   0.375   4.257
  689SOL     OW 1885   0.594   0.745   4.376
  689SOL    HW1 1886   0.644   0.830   4.357
  689SOL    HW2 1887   0.506   0.747   4.328
  690SOL     OW 1888   1.730   0.934   5.241
  690SOL    HW1 1889   1.768   1.025   5.256
  690SOL    HW2 1890   1.722   0.917   5.142
  691SOL     OW 1891   0.859   1.374   3.740
  691SOL    HW1 1892   0.813   1.389   3.828
  691SOL    HW2 1893   0.903   1.459   3.710
  692SOL     OW 1894   0.661   1.790   4.677
  692SOL    HW1 1895   0.615   1.878   4.664
  692SOL    HW2 1896   0.760   1.802   4.670
  693SOL     OW 1897   0.859   0.956   4.585
  693SOL    HW1 1898   0.913   0.887   4.633
  693SOL    HW2 1899   0.827   1.025   4.651
  694SOL     OW 1900   1.083   0.984   3.811
  694SOL    HW1 1901   1.060   1.037   3.729
  694SOL    HW2 1902   1.164   0.928   3.792
  695SOL     OW 1903   1.861   1.569   4.575
  695SOL    HW1 1904   1.790   1.557   4.505
  695SOL    HW2 1905   1.862   1.490   4.635
  696SOL     OW 1906   0.079   1.240   4.377
  696SOL    HW1 1907   0.078   1.193   4.465
  696SOL    HW2 1908   0.161   1.212   4.326
  697SOL     OW 1909   1.824   0.192   4.951
  697SOL    HW1 1910   1.820   0.102   4.995
  697SOL    HW2 1911   1.827   0.181   4.852
  698SOL     OW 1912   0.428   0.424   4.244
  698SOL    HW1 1913   0.458   0.352   4.182
  698SOL    HW2 1914   0.389   0.384   4.327
  699SOL     OW 1915   1.705   1.487   4.828
  699SOL    HW1 1916   1.612   1.462   4.801
  699SOL    HW2 1917   1.731   1.437   4.910
  700SOL     OW 1918   0.812   1.586   4.411
  700SOL    HW1 1919   0.844   1.596   4.317
  700SOL    HW2 1920   0.733   1.524   4.413
  701SOL     OW 1921   1.424   0.214   4.836
  701SOL    HW1 1922   1.476   0.149   4.891
  701SOL    HW2 1923   1.375   0.277   4.897
  702SOL     OW 1924   1.001   0.034   4.878
  702SOL    HW1 1925   0.938  -0.038   4.847
  702SOL    HW2 1926   1.094  -0.002   4.878
  703SOL     OW 1927   0.770   1.330   4.025
  703SOL    HW1 1928   0.724   1.243   4.042
  703SOL    HW2 1929   0.861   1.327   4.066
  704SOL     OW 1930   1.352   0.052   3.892
  704SOL    HW1 1931   1.387   0.011   3.808
  704SOL    HW2 1932   1.262   0.014   3.912
  705SOL     OW 1933   1.300   0.453   4.415
  705SOL    HW1 1934   1.241   0.533   4.419
  705SOL    HW2 1935   1.315   0.418   4.508
  706SOL     OW 1936   1.593   0.221   4.606
  706SOL    HW1 1937   1.509   0.220   4.660
  706SOL    HW2 1938   1.595   0.304   4.550
  707SOL     OW 1939   0.039   1.077   4.024
  707SOL    HW1 1940   0.138   1.066   4.015
  707SOL    HW2 1941  -0.001   0.991   4.056
  708SOL     OW 1942   0.875   1.646   4.061
  708SOL    HW1 1943   0.798   1.611   4.007
  708SOL    HW2 1944   0.843   1.717   4.123
  709SOL     OW 1945   0.230   2.490   0.113
  709SOL    HW1 1946   0.137   2.488   0.150
  709SOL    HW2 1947   0.231   2.451   0.021
  710SOL     OW 1948   0.225   2.137   0.996
  710SOL    HW1 1949   0.260   2.120   1.088
  710SOL    HW2 1950   0.137   2.092   0.984
  711SOL     OW 1951   0.019   2.230   0.647
  711SOL    HW1 1952  -0.063   2.273   0.686
  711SOL    HW2 1953  -0.009   2.157   0.584
  712SOL     OW 1954   0.569   3.137   1.165
  712SOL    HW1 1955   0.476   3.130   1.128
  712SOL    HW2 1956   0.580   3.226   1.209
  713SOL     OW 1957   1.555   3.373   0.703
  713SOL    HW1 1958   1.498   3.357   0.784
  713SOL    HW2 1959   1.496   3.383   0.623
  714SOL     OW 1960   1.135   2.565   0.717
  714SOL    HW1 1961   1.192   2.643   0.692
  714SOL    HW2 1962   1.075   2.591   0.793
  715SOL     OW 1963   1.755   2.469   0.231
  715SOL    HW1 1964   1.743   2.456   0.132
  715SOL    HW2 1965   1.725   2.388   0.280
  716SOL     OW 1966   0.768   3.006   1.023
  716SOL    HW1 1967   0.690   3.023   1.083
  716SOL    HW2 1968   0.802   3.093   0.987
  717SOL     OW 1969   0.850   2.660   1.823
  717SOL    HW1 1970   0.846   2.736   1.888
  717SOL    HW2 1971   0.872   2.696   1.732
  718SOL     OW 1972   0.685   2.874   0.665
  718SOL    HW1 1973   0.754   2.858   0.735
  718SOL    HW2 1974   0.612   2.931   0.703
  719SOL     OW 1975   0.686   3.023   1.803
  719SOL    HW1 1976   0.746   3.102   1.817
  719SOL    HW2 1977   0.600   3.054   1.762
  720SOL     OW 1978   0.335   3.297   1.061
  720SOL    HW1 1979   0.257   3.266   1.008
  720SOL    HW2 1980   0.393   3.355   1.004
  721SOL     OW 1981   1.460   3.367   1.339
  721SOL    HW1 1982   1.484   3.461   1.365
  721SOL    HW2 1983   1.444   3.313   1.421
  722SOL     OW 1984   0.438   2.254   1.499
  722SOL    HW1 1985   0.520   2.198   1.508
  722SOL    HW2 1986   0.357   2.196   1.503
  723SOL     OW 1987   1.603   2.309   0.737
  723SOL    HW1 1988   1.529   2.355   0.687
  723SOL    HW2 1989   1.654   2.377   0.790
  724SOL     OW 1990   0.231   3.575   0.483
  724SOL    HW1 1991   0.265   3.652   0.537
  724SOL    HW2 1992   0.275   3.575   0.393
  725SOL     OW 1993   1.127   3.203   1.690
  725SOL    HW1 1994   1.174   3.203   1.778
  725SOL    HW2 1995   1.079   3.116   1.679
  726SOL     OW 1996   0.230   3.296   0.538
  726SOL    HW1 1997   0.204   3.392   0.538
  726SOL    HW2 1998   0.159   3.242   0.583
  727SOL     OW 1999   0.240   2.953   0.886
  727SOL    HW1 2000   0.254   2.869   0.938
  727SOL    HW2 2001   0.185   3.017   0.941
  728SOL     OW 2002   0.620   3.648   1.439
  728SOL    HW1 2003   0.528   3.631   1.474
  728SOL    HW2 2004   0.648   3.740   1.465
  729SOL     OW 2005   0.606   2.826   0.123
  729SOL    HW1 2006   0.613   2.910   0.069
  729SOL    HW2 2007   0.652   2.839   0.211
  730SOL     OW 2008   1.594   1.976   1.480
  730SOL    HW1 2009   1.576   2.043   1.408
  730SOL    HW2 2010   1.591   2.022   1.569
  731SOL     OW 2011   0.122   2.505   0.563
  731SOL    HW1 2012   0.077   2.417   0.580
  731SOL    HW2 2013   0.121   2.559   0.647
  732SOL     OW 2014   1.842   3.629   0.359
  732SOL    HW1 2015   1.896   3.600   0.439
  732SOL    HW2 2016   1.872   3.719   0.330
  733SOL     OW 2017   0.027   3.458   0.117
  733SOL    HW1 2018   0.008   3.362   0.138
  733SOL    HW2 2019  -0.006   3.516   0.192
  734SOL     OW 2020   1.689   2.784   0.612
  734SOL    HW1 2021   1.784   2.755   0.620
  734SOL    HW2 2022   1.681   2.849   0.537
  735SOL     OW 2023   1.641   2.970   0.432
  735SOL    HW1 2024   1.727   2.972   0.380
  735SOL    HW2 2025   1.655   3.017   0.520
  736SOL     OW 2026   0.113   2.599   1.597
  736SOL    HW1 2027   0.201   2.586   1.642
  736SOL    HW2 2028   0.100   2.696   1.575
  737SOL     OW 2029   0.613   3.227   0.726
  737SOL    HW1 2030   0.564   3.140   0.735
  737SOL    HW2 2031   0.590   3.270   0.639
  738SOL     OW 2032   1.293   3.090   1.423
  738SOL    HW1 2033   1.330   3.017   1.365
  738SOL    HW2 2034   1.345   3.095   1.508
  739SOL     OW 2035   0.809   1.866   0.502
  739SOL    HW1 2036   0.849   1.957   0.493
  739SOL    HW2 2037   0.709   1.874   0.508
  740SOL     OW 2038   0.197   2.838   1.264
  740SOL    HW1 2039   0.286   2.793   1.250
  740SOL    HW2 2040   0.124   2.773   1.245
  741SOL     OW 2041   1.525   2.861   0.190
  741SOL    HW1 2042   1.462   2.785   0.203
  741SOL    HW2 2043   1.573   2.879   0.276
  742SOL     OW 2044   1.187   3.654   1.616
  742SOL    HW1 2045   1.211   3.714   1.540
  742SOL    HW2 2046   1.194   3.559   1.586
  743SOL     OW 2047   0.317   2.113   1.801
  743SOL    HW1 2048   0.388   2.184   1.807
  743SOL    HW2 2049   0.229   2.152   1.829
  744SOL     OW 2050   1.466   3.279   0.953
  744SOL    HW1 2051   1.407   3.285   1.033
  744SOL    HW2 2052   1.451   3.191   0.907
  745SOL     OW 2053   1.667   3.576   0.572
  745SOL    HW1 2054   1.626   3.553   0.484
  745SOL    HW2 2055   1.649   3.502   0.637
  746SOL     OW 2056   0.598   2.591   0.270
  746SOL    HW1 2057   0.622   2.660   0.202
  746SOL    HW2 2058   0.520   2.624   0.324
  747SOL     OW 2059   1.281   2.207   0.944
  747SOL    HW1 2060   1.195   2.157   0.931
  747SOL    HW2 2061   1.343   2.153   1.000
  748SOL     OW 2062   1.576   3.524   0.307
  748SOL    HW1 2063   1.665   3.570   0.310
  748SOL    HW2 2064   1.555   3.500   0.212
  749SOL     OW 2065   0.807   2.467   1.465
  749SOL    HW1 2066   0.760   2.464   1.554
  749SOL    HW2 2067   0.756   2.412   1.399
  750SOL     OW 2068   1.394   2.331   1.674
  750SOL    HW1 2069   1.374   2.374   1.762
  750SOL    HW2 2070   1.472   2.269   1.683
  751SOL     OW 2071   0.973   2.752   1.572
  751SOL    HW1 2072   1.019   2.668   1.543
  751SOL    HW2 2073   0.917   2.786   1.497
  752SOL     OW 2074   0.991   2.272   1.242
  752SOL    HW1 2075   0.914   2.306   1.296
  752SOL    HW2 2076   0.957   2.221   1.163
  753SOL     OW 2077   1.041   2.563   0.429
  753SOL    HW1 2078   1.067   2.559   0.525
  753SOL    HW2 2079   0.956   2.512   0.415
  754SOL     OW 2080   0.076   2.673   0.789
  754SOL    HW1 2081   0.175   2.661   0.798
  754SOL    HW2 2082   0.052   2.768   0.810
  755SOL     OW 2083   0.130   3.683   1.571
  755SOL    HW1 2084   0.120   3.668   1.670
  755SOL    HW2 2085   0.044   3.719   1.535
  756SOL     OW 2086   0.865   2.210   0.195
  756SOL    HW1 2087   0.924   2.273   0.146
  756SOL    HW2 2088   0.884   2.116   0.166
  757SOL     OW 2089   1.719   2.447   1.831
  757SOL    HW1 2090   1.693   2.536   1.795
  757SOL    HW2 2091   1.717   2.379   1.758
  758SOL     OW 2092   1.362   3.006   0.545
  758SOL    HW1 2093   1.445   2.977   0.497
  758SOL    HW2 2094   1.313   3.073   0.489
  759SOL     OW 2095   0.550   2.058   0.885
  759SOL    HW1 2096   0.545   2.053   0.985
  759SOL    HW2 2097   0.552   2.154   0.856
  760SOL     OW 2098   1.008   3.318   0.477
  760SOL    HW1 2099   0.962   3.390   0.425
  760SOL    HW2 2100   1.004   3.338   0.575
  761SOL     OW 2101   0.351   3.663   0.853
  761SOL    HW1 2102   0.401   3.577   0.859
  761SOL    HW2 2103   0.416   3.740   0.850
  762SOL     OW 2104   1.795   2.928   0.873
  762SOL    HW1 2105   1.733   2.913   0.797
  762SOL    HW2 2106   1.743   2.939   0.958
  763SOL     OW 2107   1.227   3.412   1.506
  763SOL    HW1 2108   1.233   3.335   1.570
  763SOL    HW2 2109   1.175   3.386   1.426
  764SOL     OW 2110   0.321   2.805   0.242
  764SOL    HW1 2111   0.403   2.844   0.200
  764SOL    HW2 2112   0.294   2.723   0.193
  765SOL     OW 2113   1.458   2.597   0.728
  765SOL    HW1 2114   1.453   2.532   0.803
  765SOL    HW2 2115   1.538   2.656   0.741
  766SOL     OW 2116   0.461   3.128   1.727
  766SOL    HW1 2117   0.411   3.129   1.641
  766SOL    HW2 2118   0.398   3.110   1.803
  767SOL     OW 2119   1.111   3.638   0.237
  767SOL    HW1 2120   1.051   3.576   0.287
  767SOL    HW2 2121   1.142   3.594   0.152
  768SOL     OW 2122   0.202   2.147   1.498
  768SOL    HW1 2123   0.122   2.207   1.485
  768SOL    HW2 2124   0.192   2.098   1.584
  769SOL     OW 2125   1.632   3.239   0.081
  769SOL    HW1 2126   1.600   3.333   0.071
  769SOL    HW2 2127   1.556   3.176   0.069
  770SOL     OW 2128   0.464   3.605   0.323
  770SOL    HW1 2129   0.497   3.644   0.409
  770SOL    HW2 2130   0.540   3.598   0.258
  771SOL     OW 2131   1.400   1.969   0.426
  771SOL    HW1 2132   1.376   1.932   0.336
  771SOL    HW2 2133   1.499   1.985   0.430
  772SOL     OW 2134   0.249   3.647   1.241
  772SOL    HW1 2135   0.306   3.582   1.291
  772SOL    HW2 2136   0.233   3.614   1.148
  773SOL     OW 2137   0.940   3.560   0.904
  773SOL    HW1 2138   1.020   3.503   0.925
  773SOL    HW2 2139   0.891   3.520   0.827
  774SOL     OW 2140   0.382   2.562   0.480
  774SOL    HW1 2141   0.427   2.472   0.477
  774SOL    HW2 2142   0.288   2.551   0.513
  775SOL     OW 2143   1.547   2.084   1.729
  775SOL    HW1 2144   1.542   2.121   1.821
  775SOL    HW2 2145   1.475   2.015   1.717
  776SOL     OW 2146   0.781   2.126   1.749
  776SOL    HW1 2147   0.848   2.065   1.792
  776SOL    HW2 2148   0.708   2.145   1.814
  777SOL     OW 2149   0.888   3.376   1.195
  777SOL    HW1 2150   0.865   3.351   1.101
  777SOL    HW2 2151   0.949   3.307   1.234
  778SOL     OW 2152   1.351   2.452   1.433
  778SOL    HW1 2153   1.379   2.409   1.518
  778SOL    HW2 2154   1.376   2.548   1.434
  779SOL     OW 2155   0.803   3.264   0.924
  779SOL    HW1 2156   0.893   3.278   0.882
  779SOL    HW2 2157   0.732   3.266   0.853
  780SOL     OW 2158   0.922   2.365   0.899
  780SOL    HW1 2159   0.897   2.356   0.803
  780SOL    HW2 2160   0.970   2.283   0.930
  781SOL     OW 2161   0.539   1.926   0.512
  781SOL    HW1 2162   0.458   1.927   0.570
  781SOL    HW2 2163   0.542   2.009   0.457
  782SOL     OW 2164   1.434   3.050   0.041
  782SOL    HW1 2165   1.466   2.974   0.098
  782SOL    HW2 2166   1.342   3.077   0.071
  783SOL     OW 2167   0.297   1.897   0.171
  783SOL    HW1 2168   0.346   1.981   0.150
  783SOL    HW2 2169   0.359   1.832   0.216
  784SOL     OW 2170   0.935   2.098   0.480
  784SOL    HW1 2171   0.887   2.139   0.402
  784SOL    HW2 2172   1.034   2.096   0.461
  785SOL     OW 2173   1.076   2.545   1.464
  785SOL    HW1 2174   0.996   2.484   1.467
  785SOL    HW2 2175   1.157   2.492   1.440
  786SOL     OW 2176   1.227   3.432   0.793
  786SOL    HW1 2177   1.248   3.506   0.728
  786SOL    HW2 2178   1.295   3.432   0.866
  787SOL     OW 2179   0.459   3.014   0.741
  787SOL    HW1 2180   0.388   2.987   0.806
  787SOL    HW2 2181   0.433   2.986   0.648
  788SOL     OW 2182   1.271   3.659   0.591
  788SOL    HW1 2183   1.315   3.723   0.527
  788SOL    HW2 2184   1.221   3.711   0.661
  789SOL     OW 2185   1.032   2.411   0.016
  789SOL    HW1 2186   0.991   2.493  -0.023
  789SOL    HW2 2187   1.096   2.437   0.089
  790SOL     OW 2188   0.078   2.418   1.386
  790SOL    HW1 2189   0.170   2.417   1.345
  790SOL    HW2 2190   0.072   2.492   1.453
  791SOL     OW 2191   0.561   2.084   1.147
  791SOL    HW1 2192   0.599   2.000   1.184
  791SOL    HW2 2193   0.473   2.103   1.191
  792SOL     OW 2194   0.866   2.316   0.642
  792SOL    HW1 2195   0.834   2.388   0.580
  792SOL    HW2 2196   0.890   2.235   0.589
  793SOL     OW 2197   1.017   1.901   0.753
  793SOL    HW1 2198   0.945   1.906   0.684
  793SOL    HW2 2199   0.993   1.832   0.822
  794SOL     OW 2200   1.429   3.035   0.867
  794SOL    HW1 2201   1.374   2.951   0.860
  794SOL    HW2 2202   1.455   3.064   0.775
  795SOL     OW 2203   1.466   2.452   0.992
  795SOL    HW1 2204   1.436   2.357   0.999
  795SOL    HW2 2205   1.539   2.468   1.058
  796SOL     OW 2206   1.857   2.695   0.377
  796SOL    HW1 2207   1.899   2.631   0.441
  796SOL    HW2 2208   1.819   2.644   0.299
  797SOL     OW 2209   0.488   3.247   0.174
  797SOL    HW1 2210   0.401   3.232   0.221
  797SOL    HW2 2211   0.471   3.273   0.079
  798SOL     OW 2212   1.664   3.142   0.657
  798SOL    HW1 2213   1.763   3.150   0.671
  798SOL    HW2 2214   1.619   3.226   0.688
  799SOL     OW 2215   1.390   2.437   0.078
  799SOL    HW1 2216   1.336   2.416   0.159
  799SOL    HW2 2217   1.481   2.396   0.087
  800SOL     OW 2218   0.527   2.118   0.328
  800SOL    HW1 2219   0.554   2.059   0.253
  800SOL    HW2 2220   0.527   2.213   0.297
  801SOL     OW 2221   1.754   3.085   1.588
  801SOL    HW1 2222   1.845   3.046   1.575
  801SOL    HW2 2223   1.762   3.181   1.612
  802SOL     OW 2224   1.064   3.209   1.340
  802SOL    HW1 2225   0.984   3.186   1.395
  802SOL    HW2 2226   1.147   3.183   1.389
  803SOL     OW 2227   1.592   3.491   1.625
  803SOL    HW1 2228   1.619   3.525   1.535
  803SOL    HW2 2229   1.671   3.453   1.671
  804SOL     OW 2230   1.111   3.057   1.100
  804SOL    HW1 2231   1.071   3.101   1.181
  804SOL    HW2 2232   1.070   3.094   1.017
  805SOL     OW 2233   1.638   2.961   1.079
  805SOL    HW1 2234   1.643   3.042   1.138
  805SOL    HW2 2235   1.552   2.963   1.028
  806SOL     OW 2236   0.915   1.951   1.402
  806SOL    HW1 2237   0.940   1.931   1.307
  806SOL    HW2 2238   0.987   2.007   1.444
  807SOL     OW 2239   0.980   2.978   1.719
  807SOL    HW1 2240   0.881   2.984   1.729
  807SOL    HW2 2241   1.003   2.898   1.663
  808SOL     OW 2242   0.705   2.912   0.368
  808SOL    HW1 2243   0.691   2.919   0.467
  808SOL    HW2 2244   0.789   2.861   0.350
  809SOL     OW 2245   0.410   2.675   1.251
  809SOL    HW1 2246   0.496   2.687   1.301
  809SOL    HW2 2247   0.368   2.588   1.278
  810SOL     OW 2248   1.274   2.248   1.262
  810SOL    HW1 2249   1.295   2.322   1.326
  810SOL    HW2 2250   1.185   2.265   1.219
  811SOL     OW 2251   0.064   3.426   1.331
  811SOL    HW1 2252   0.018   3.508   1.297
  811SOL    HW2 2253   0.162   3.445   1.340
  812SOL     OW 2254   0.367   2.962   0.501
  812SOL    HW1 2255   0.360   3.045   0.445
  812SOL    HW2 2256   0.371   2.882   0.441
  813SOL     OW 2257   0.566   2.399   0.865
  813SOL    HW1 2258   0.578   2.465   0.791
  813SOL    HW2 2259   0.612   2.433   0.948
  814SOL     OW 2260   1.252   3.210   0.388
  814SOL    HW1 2261   1.302   3.287   0.428
  814SOL    HW2 2262   1.157   3.212   0.420
  815SOL     OW 2263   1.272   3.307   1.142
  815SOL    HW1 2264   1.319   3.320   1.229
  815SOL    HW2 2265   1.206   3.233   1.151
  816SOL     OW 2266   1.582   2.501   0.472
  816SOL    HW1 2267   1.551   2.562   0.545
  816SOL    HW2 2268   1.632   2.553   0.403
  817SOL     OW 2269   0.354   3.372   1.329
  817SOL    HW1 2270   0.333   3.328   1.242
  817SOL    HW2 2271   0.451   3.398   1.332
  818SOL     OW 2272   0.402   2.613   1.598
  818SOL    HW1 2273   0.470   2.668   1.551
  818SOL    HW2 2274   0.442   2.525   1.625
  819SOL     OW 2275   1.587   2.641   1.670
  819SOL    HW1 2276   1.495   2.679   1.665
  819SOL    HW2 2277   1.647   2.688   1.605
  820SOL     OW 2278   1.013   1.967   1.770
  820SOL    HW1 2279   1.019   2.052   1.718
  820SOL    HW2 2280   1.045   1.891   1.713
  821SOL     OW 2281   0.504   1.912   1.740
  821SOL    HW1 2282   0.462   1.855   1.670
  821SOL    HW2 2283   0.438   1.981   1.772
  822SOL     OW 2284   0.573   2.732   1.029
  822SOL    HW1 2285   0.617   2.821   1.020
  822SOL    HW2 2286   0.510   2.732   1.106
  823SOL     OW 2287   1.360   2.724   1.045
  823SOL    HW1 2288   1.285   2.724   0.979
  823SOL    HW2 2289   1.397   2.632   1.054
  824SOL     OW 2290   1.209   2.387   0.275
  824SOL    HW1 2291   1.222   2.303   0.329
  824SOL    HW2 2292   1.180   2.461   0.335
  825SOL     OW 2293   0.307   2.075   1.231
  825SOL    HW1 2294   0.284   2.112   1.321
  825SOL    HW2 2295   0.277   1.980   1.225
  826SOL     OW 2296   0.037   3.172   1.282
  826SOL    HW1 2297   0.090   3.123   1.350
  826SOL    HW2 2298   0.059   3.270   1.287
  827SOL     OW 2299   0.732   2.496   1.064
  827SOL    HW1 2300   0.791   2.470   0.988
  827SOL    HW2 2301   0.704   2.592   1.053
  828SOL     OW 2302   1.728   2.797   1.854
  828SOL    HW1 2303   1.682   2.790   1.765
  828SOL    HW2 2304   1.666   2.841   1.920
  829SOL     OW 2305   0.307   1.925   0.618
  829SOL    HW1 2306   0.296   2.019   0.651
  829SOL    HW2 2307   0.302   1.862   0.695
  830SOL     OW 2308   1.622   2.229   0.374
  830SOL    HW1 2309   1.624   2.153   0.438
  830SOL    HW2 2310   1.574   2.306   0.414
  831SOL     OW 2311   1.023   2.628   0.966
  831SOL    HW1 2312   1.038   2.649   1.062
  831SOL    HW2 2313   0.993   2.533   0.957
  832SOL     OW 2314   0.980   3.435   1.700
  832SOL    HW1 2315   0.960   3.479   1.612
  832SOL    HW2 2316   1.019   3.344   1.684
  833SOL     OW 2317   1.859   3.380   1.605
  833SOL    HW1 2318   1.873   3.407   1.510
  833SOL    HW2 2319   1.942   3.402   1.658
  834SOL     OW 2320   0.350   2.760   1.804
  834SOL    HW1 2321   0.426   2.804   1.852
  834SOL    HW2 2322   0.385   2.713   1.722
  835SOL     OW 2323   1.540   2.136   0.125
  835SOL    HW1 2324   1.479   2.061   0.148
  835SOL    HW2 2325   1.562   2.188   0.208
  836SOL     OW 2326   1.303   2.700   0.042
  836SOL    HW1 2327   1.337   2.607   0.057
  836SOL    HW2 2328   1.321   2.727  -0.053
  837SOL     OW 2329   1.068   3.195   0.849
  837SOL    HW1 2330   1.075   3.111   0.794
  837SOL    HW2 2331   1.130   3.264   0.813
  838SOL     OW 2332   0.319   2.672   0.949
  838SOL    HW1 2333   0.412   2.708   0.954
  838SOL    HW2 2334   0.313   2.587   1.001
  839SOL     OW 2335   0.339   2.371   1.006
  839SOL    HW1 2336   0.287   2.288   0.989
  839SOL    HW2 2337   0.416   2.376   0.942
  840SOL     OW 2338   1.138   2.242   1.678
  840SOL    HW1 2339   1.093   2.305   1.742
  840SOL    HW2 2340   1.231   2.273   1.661
  841SOL     OW 2341   1.160   2.069   1.477
  841SOL    HW1 2342   1.160   2.133   1.554
  841SOL    HW2 2343   1.188   2.117   1.394
  842SOL     OW 2344   0.008   3.188   0.200
  842SOL    HW1 2345  -0.085   3.209   0.169
  842SOL    HW2 2346   0.018   3.089   0.213
  843SOL     OW 2347   0.088   3.663   0.927
  843SOL    HW1 2348   0.046   3.577   0.900
  843SOL    HW2 2349   0.182   3.666   0.893
  844SOL     OW 2350   0.504   3.430   0.910
  844SOL    HW1 2351   0.570   3.504   0.919
  844SOL    HW2 2352   0.548   3.351   0.868
  845SOL     OW 2353   1.002   2.658   1.238
  845SOL    HW1 2354   1.043   2.626   1.324
  845SOL    HW2 2355   0.906   2.631   1.235
  846SOL     OW 2356   0.040   2.406   1.114
  846SOL    HW1 2357   0.125   2.373   1.073
  846SOL    HW2 2358   0.053   2.421   1.212
  847SOL     OW 2359   0.189   2.382   1.722
  847SOL    HW1 2360   0.248   2.342   1.652
  847SOL    HW2 2361   0.131   2.453   1.681
  848SOL     OW 2362   1.369   2.812   1.660
  848SOL    HW1 2363   1.408   2.901   1.680
  848SOL    HW2 2364   1.379   2.792   1.563
  849SOL     OW 2365   0.815   2.434   0.325
  849SOL    HW1 2366   0.822   2.345   0.279
  849SOL    HW2 2367   0.721   2.468   0.317
  850SOL     OW 2368   1.657   2.466   1.206
  850SOL    HW1 2369   1.619   2.397   1.268
  850SOL    HW2 2370   1.739   2.430   1.162
  851SOL     OW 2371   0.252   3.426   1.744
  851SOL    HW1 2372   0.222   3.483   1.820
  851SOL    HW2 2373   0.245   3.329   1.770
  852SOL     OW 2374   0.671   2.326   1.269
  852SOL    HW1 2375   0.637   2.237   1.239
  852SOL    HW2 2376   0.697   2.380   1.189
  853SOL     OW 2377   0.930   3.540   1.465
  853SOL    HW1 2378   0.906   3.522   1.370
  853SOL    HW2 2379   0.960   3.634   1.475
  854SOL     OW 2380   0.473   2.362   0.191
  854SOL    HW1 2381   0.534   2.442   0.195
  854SOL    HW2 2382   0.378   2.393   0.198
  855SOL     OW 2383   0.159   2.999   1.466
  855SOL    HW1 2384   0.181   2.938   1.542
  855SOL    HW2 2385   0.169   2.950   1.380
  856SOL     OW 2386   1.347   2.921   1.234
  856SOL    HW1 2387   1.371   2.858   1.160
  856SOL    HW2 2388   1.257   2.961   1.216
  857SOL     OW 2389   1.302   2.717   0.309
  857SOL    HW1 2390   1.216   2.686   0.351
  857SOL    HW2 2391   1.298   2.703   0.210
  858SOL     OW 2392   1.759   3.609   1.154
  858SOL    HW1 2393   1.820   3.639   1.081
  858SOL    HW2 2394   1.721   3.520   1.132
  859SOL     OW 2395   1.252   3.593   1.128
  859SOL    HW1 2396   1.336   3.598   1.074
  859SOL    HW2 2397   1.229   3.497   1.146
  860SOL     OW 2398   0.083   3.120   1.022
  860SOL    HW1 2399   0.078   3.119   1.122
  860SOL    HW2 2400   0.000   3.079   0.984
  861SOL     OW 2401   0.688   3.524   1.716
  861SOL    HW1 2402   0.632   3.605   1.725
  861SOL    HW2 2403   0.740   3.528   1.630
  862SOL     OW 2404   0.903   1.948   0.133
  862SOL    HW1 2405   0.954   1.949   0.047
  862SOL    HW2 2406   0.959   1.906   0.204
  863SOL     OW 2407   1.726   1.997   0.523
  863SOL    HW1 2408   1.799   1.980   0.456
  863SOL    HW2 2409   1.695   1.910   0.561
  864SOL     OW 2410   1.388   3.435   0.477
  864SOL    HW1 2411   1.455   3.447   0.403
  864SOL    HW2 2412   1.348   3.524   0.500
  865SOL     OW 2413   0.130   3.656   1.851
  865SOL    HW1 2414   0.089   3.582   1.904
  865SOL    HW2 2415   0.194   3.707   1.909
  866SOL     OW 2416   1.280   2.789   0.672
  866SOL    HW1 2417   1.340   2.708   0.674
  866SOL    HW2 2418   1.320   2.858   0.612
  867SOL     OW 2419   0.830   3.135   1.422
  867SOL    HW1 2420   0.825   3.168   1.517
  867SOL    HW2 2421   0.744   3.154   1.376
  868SOL     OW 2422   0.672   3.478   0.154
  868SOL    HW1 2423   0.681   3.488   0.055
  868SOL    HW2 2424   0.632   3.389   0.175
  869SOL     OW 2425   1.650   3.582   1.394
  869SOL    HW1 2426   1.703   3.592   1.310
  869SOL    HW2 2427   1.623   3.672   1.428
  870SOL     OW 2428   1.841   2.037   0.963
  870SOL    HW1 2429   1.880   1.952   0.927
  870SOL    HW2 2430   1.743   2.039   0.944
  871SOL     OW 2431   0.263   2.188   0.720
  871SOL    HW1 2432   0.184   2.239   0.686
  871SOL    HW2 2433   0.254   2.173   0.818
  872SOL     OW 2434   1.194   3.474   0.031
  872SOL    HW1 2435   1.200   3.381   0.068
  872SOL    HW2 2436   1.135   3.474  -0.049
  873SOL     OW 2437   0.822   2.864   1.372
  873SOL    HW1 2438   0.862   2.863   1.280
  873SOL    HW2 2439   0.832   2.956   1.412
  874SOL     OW 2440   0.916   2.772   0.291
  874SOL    HW1 2441   0.979   2.810   0.223
  874SOL    HW2 2442   0.956   2.689   0.330
  875SOL     OW 2443   1.504   3.469   0.044
  875SOL    HW1 2444   1.412   3.506   0.051
  875SOL    HW2 2445   1.542   3.489  -0.046
  876SOL     OW 2446   0.372   3.150   1.490
  876SOL    HW1 2447   0.359   3.243   1.456
  876SOL    HW2 2448   0.288   3.098   1.477
  877SOL     OW 2449   1.614   3.154   1.289
  877SOL    HW1 2450   1.674   3.157   1.369
  877SOL    HW2 2451   1.539   3.218   1.302
  878SOL     OW 2452   1.039   2.960   0.696
  878SOL    HW1 2453   0.969   2.913   0.750
  878SOL    HW2 2454   1.098   2.892   0.653
  879SOL     OW 2455   1.014   2.098   0.971
  879SOL    HW1 2456   1.006   2.062   0.878
  879SOL    HW2 2457   1.012   2.022   1.036
  880SOL     OW 2458   0.590   3.349   0.491
  880SOL    HW1 2459   0.632   3.291   0.421
  880SOL    HW2 2460   0.546   3.428   0.447
  881SOL     OW 2461   1.709   2.247   1.381
  881SOL    HW1 2462   1.782   2.316   1.385
  881SOL    HW2 2463   1.737   2.172   1.322
  882SOL     OW 2464   0.255   3.210   0.290
  882SOL    HW1 2465   0.159   3.211   0.263
  882SOL    HW2 2466   0.267   3.263   0.374
  883SOL     OW 2467   0.105   2.875   1.726
  883SOL    HW1 2468   0.028   2.842   1.780
  883SOL    HW2 2469   0.190   2.845   1.768
  884SOL     OW 2470   0.672   2.065   1.489
  884SOL    HW1 2471   0.762   2.049   1.449
  884SOL    HW2 2472   0.680   2.070   1.588
  885SOL     OW 2473   0.075   2.207   0.033
  885SOL    HW1 2474  -0.017   2.179   0.004
  885SOL    HW2 2475   0.106   2.284  -0.023
  886SOL     OW 2476   1.440   2.718   1.398
  886SOL    HW1 2477   1.383   2.770   1.335
  886SOL    HW2 2478   1.536   2.730   1.374
  887SOL     OW 2479   0.072   2.028   0.318
  887SOL    HW1 2480   0.055   2.111   0.264
  887SOL    HW2 2481   0.162   1.991   0.296
  888SOL     OW 2482   1.183   3.197   0.119
  888SOL    HW1 2483   1.084   3.186   0.121
  888SOL    HW2 2484   1.217   3.212   0.212
  889SOL     OW 2485   0.613   2.704   1.431
  889SOL    HW1 2486   0.669   2.785   1.414
  889SOL    HW2 2487   0.672   2.624   1.434
  890SOL     OW 2488   1.493   3.629   0.959
  890SOL    HW1 2489   1.526   3.693   0.890
  890SOL    HW2 2490   1.559   3.623   1.034
  891SOL     OW 2491   0.716   2.427   1.708
  891SOL    HW1 2492   0.735   2.492   1.782
  891SOL    HW2 2493   0.776   2.347   1.717
  892SOL     OW 2494   1.450   3.082   1.633
  892SOL    HW1 2495   1.441   3.072   1.732
  892SOL    HW2 2496   1.546   3.075   1.607
  893SOL     OW 2497   0.390   3.603   1.560
  893SOL    HW1 2498   0.299   3.644   1.558
  893SOL    HW2 2499   0.383   3.509   1.592
  894SOL     OW 2500   1.674   2.745   1.254
  894SOL    HW1 2501   1.647   2.656   1.217
  894SOL    HW2 2502   1.675   2.813   1.181
  895SOL     OW 2503   1.225   2.187   0.449
  895SOL    HW1 2504   1.290   2.113   0.438
  895SOL    HW2 2505   1.245   2.237   0.533
  896SOL     OW 2506   0.594   2.607   0.652
  896SOL    HW1 2507   0.644   2.692   0.633
  896SOL    HW2 2508   0.506   2.609   0.604
  897SOL     OW 2509   1.777   2.204   1.642
  897SOL    HW1 2510   1.760   2.235   1.548
  897SOL    HW2 2511   1.693   2.167   1.680
  898SOL     OW 2512   1.730   2.796   1.517
  898SOL    HW1 2513   1.768   2.887   1.532
  898SOL    HW2 2514   1.722   2.779   1.418
  899SOL     OW 2515   0.859   3.236   0.016
  899SOL    HW1 2516   0.813   3.251   0.104
  899SOL    HW2 2517   0.903   3.321  -0.014
  900SOL     OW 2518   0.661   3.652   0.953
  900SOL    HW1 2519   0.615   3.740   0.940
  900SOL    HW2 2520   0.760   3.664   0.946
  901SOL     OW 2521   0.859   2.818   0.861
  901SOL    HW1 2522   0.913   2.749   0.909
  901SOL    HW2 2523   0.827   2.887   0.927
  902SOL     OW 2524   1.083   2.846   0.087
  902SOL    HW1 2525   1.060   2.899   0.005
  902SOL    HW2 2526   1.164   2.790   0.068
  903SOL     OW 2527   1.861   3.431   0.851
  903SOL    HW1 2528   1.790   3.419   0.781
  903SOL    HW2 2529   1.862   3.352   0.911
  904SOL     OW 2530   0.221   3.176   1.844
  904SOL    HW1 2531   0.156   3.103   1.823
  904SOL    HW2 2532   0.225   3.190   1.942
  905SOL     OW 2533   0.079   3.102   0.653
  905SOL    HW1 2534   0.078   3.055   0.741
  905SOL    HW2 2535   0.161   3.074   0.602
  906SOL     OW 2536   0.672   3.253   1.624
  906SOL    HW1 2537   0.594   3.203   1.662
  906SOL    HW2 2538   0.669   3.348   1.655
  907SOL     OW 2539   1.824   2.054   1.227
  907SOL    HW1 2540   1.820   1.964   1.271
  907SOL    HW2 2541   1.827   2.043   1.128
  908SOL     OW 2542   0.428   2.286   0.520
  908SOL    HW1 2543   0.458   2.214   0.458
  908SOL    HW2 2544   0.389   2.246   0.603
  909SOL     OW 2545   1.705   3.349   1.104
  909SOL    HW1 2546   1.612   3.324   1.077
  909SOL    HW2 2547   1.731   3.299   1.186
  910SOL     OW 2548   0.317   2.409   1.280
  910SOL    HW1 2549   0.355   2.350   1.352
  910SOL    HW2 2550   0.357   2.383   1.192
  911SOL     OW 2551   0.812   3.448   0.687
  911SOL    HW1 2552   0.844   3.458   0.593
  911SOL    HW2 2553   0.733   3.386   0.689
  912SOL     OW 2554   1.424   2.076   1.112
  912SOL    HW1 2555   1.476   2.011   1.167
  912SOL    HW2 2556   1.375   2.139   1.173
  913SOL     OW 2557   1.001   1.896   1.154
  913SOL    HW1 2558   0.938   1.824   1.123
  913SOL    HW2 2559   1.094   1.860   1.154
  914SOL     OW 2560   0.770   3.192   0.301
  914SOL    HW1 2561   0.724   3.105   0.318
  914SOL    HW2 2562   0.861   3.189   0.342
  915SOL     OW 2563   0.618   3.429   1.284
  915SOL    HW1 2564   0.613   3.511   1.341
  915SOL    HW2 2565   0.707   3.426   1.239
  916SOL     OW 2566   1.352   1.914   0.168
  916SOL    HW1 2567   1.387   1.873   0.084
  916SOL    HW2 2568   1.262   1.876   0.188
  917SOL     OW 2569   1.300   2.315   0.691
  917SOL    HW1 2570   1.241   2.395   0.695
  917SOL    HW2 2571   1.315   2.280   0.784
  918SOL     OW 2572   1.593   2.083   0.882
  918SOL    HW1 2573   1.509   2.082   0.936
  918SOL    HW2 2574   1.595   2.166   0.826
  919SOL     OW 2575   0.039   2.939   0.300
  919SOL    HW1 2576   0.138   2.928   0.291
  919SOL    HW2 2577  -0.001   2.853   0.332
  920SOL     OW 2578   0.875   3.508   0.337
  920SOL    HW1 2579   0.798   3.473   0.283
  920SOL    HW2 2580   0.843   3.579   0.399
  921SOL     OW 2581   0.230   2.490   1.975
  921SOL    HW1 2582   0.137   2.488   2.012
  921SOL    HW2 2583   0.231   2.451   1.883
  922SOL     OW 2584   0.225   2.137   2.858
  922SOL    HW1 2585   0.260   2.120   2.950
  922SOL    HW2 2586   0.137   2.092   2.846
  923SOL     OW 2587   0.019   2.230   2.509
  923SOL    HW1 2588  -0.063   2.273   2.548
  923SOL    HW2 2589  -0.009   2.157   2.446
  924SOL     OW 2590   0.569   3.137   3.027
  924SOL    HW1 2591   0.476   3.130   2.990
  924SOL    HW2 2592   0.580   3.226   3.071
  925SOL     OW 2593   1.555   3.373   2.565
  925SOL    HW1 2594   1.498   3.357   2.646
  925SOL    HW2 2595   1.496   3.383   2.485
  926SOL     OW 2596   1.755   2.469   2.093
  926SOL    HW1 2597   1.743   2.456   1.994
  926SOL    HW2 2598   1.725   2.388   2.142
  927SOL     OW 2599   0.768   3.006   2.885
  927SOL    HW1 2600   0.690   3.023   2.945
  927SOL    HW2 2601   0.802   3.093   2.849
  928SOL     OW 2602   0.850   2.660   3.685
  928SOL    HW1 2603   0.846   2.736   3.750
  928SOL    HW2 2604   0.872   2.696   3.594
  929SOL     OW 2605   0.685   2.874   2.527
  929SOL    HW1 2606   0.754   2.858   2.597
  929SOL    HW2 2607   0.612   2.931   2.565
  930SOL     OW 2608   0.686   3.023   3.665
  930SOL    HW1 2609   0.746   3.102   3.679
  930SOL    HW2 2610   0.600   3.054   3.624
  931SOL     OW 2611   0.335   3.297   2.923
  931SOL    HW1 2612   0.257   3.266   2.870
  931SOL    HW2 2613   0.393   3.355   2.866
  932SOL     OW 2614   1.460   3.367   3.201
  932SOL    HW1 2615   1.484   3.461   3.227
  932SOL    HW2 2616   1.444   3.313   3.283
  933SOL     OW 2617   0.438   2.254   3.361
  933SOL    HW1 2618   0.520   2.198   3.370
  933SOL    HW2 2619   0.357   2.196   3.365
  934SOL     OW 2620   0.231   3.575   2.345
  934SOL    HW1 2621   0.265   3.652   2.399
  934SOL    HW2 2622   0.275   3.575   2.255
  935SOL     OW 2623   1.127   3.203   3.552
  935SOL    HW1 2624   1.174   3.203   3.640
  935SOL    HW2 2625   1.079   3.116   3.541
  936SOL     OW 2626   0.230   3.296   2.400
  936SOL    HW1 2627   0.204   3.392   2.400
  936SOL    HW2 2628   0.159   3.242   2.445
  937SOL     OW 2629   0.240   2.953   2.748
  937SOL    HW1 2630   0.254   2.869   2.800
  937SOL    HW2 2631   0.185   3.017   2.803
  938SOL     OW 2632   0.620   3.648   3.301
  938SOL    HW1 2633   0.528   3.631   3.336
  938SOL    HW2 2634   0.648   3.740   3.327
  939SOL     OW 2635   0.606   2.826   1.985
  939SOL    HW1 2636   0.613   2.910   1.931
  939SOL    HW2 2637   0.652   2.839   2.073
  940SOL     OW 2638   1.594   1.976   3.342
  940SOL    HW1 2639   1.576   2.043   3.270
  940SOL    HW2 2640   1.591   2.022   3.431
  941SOL     OW 2641   0.122   2.505   2.425
  941SOL    HW1 2642   0.077   2.417   2.442
  941SOL    HW2 2643   0.121   2.559   2.509
  942SOL     OW 2644   1.842   3.629   2.221
  942SOL    HW1 2645   1.896   3.600   2.301
  942SOL    HW2 2646   1.872   3.719   2.192
  943SOL     OW 2647   0.027   3.458   1.979
  943SOL    HW1 2648   0.008   3.362   2.000
  943SOL    HW2 2649  -0.006   3.516   2.054
  944SOL     OW 2650   1.641   2.970   2.294
  944SOL    HW1 2651   1.727   2.972   2.242
  944SOL    HW2 2652   1.655   3.017   2.382
  945SOL     OW 2653   0.113   2.599   3.459
  945SOL    HW1 2654   0.201   2.586   3.504
  945SOL    HW2 2655   0.100   2.696   3.437
  946SOL     OW 2656   0.613   3.227   2.588
  946SOL    HW1 2657   0.564   3.140   2.597
  946SOL    HW2 2658   0.590   3.270   2.501
  947SOL     OW 2659   1.293   3.090   3.285
  947SOL    HW1 2660   1.330   3.017   3.227
  947SOL    HW2 2661   1.345   3.095   3.370
  948SOL     OW 2662   0.809   1.866   2.364
  948SOL    HW1 2663   0.849   1.957   2.355
  948SOL    HW2 2664   0.709   1.874   2.370
  949SOL     OW 2665   0.197   2.838   3.126
  949SOL    HW1 2666   0.286   2.793   3.112
  949SOL    HW2 2667   0.124   2.773   3.107
  950SOL     OW 2668   1.525   2.861   2.052
  950SOL    HW1 2669   1.462   2.785   2.065
  950SOL    HW2 2670   1.573   2.879   2.138
  951SOL     OW 2671   1.187   3.654   3.478
  951SOL    HW1 2672   1.211   3.714   3.402
  951SOL    HW2 2673   1.194   3.559   3.448
  952SOL     OW 2674   0.317   2.113   3.663
  952SOL    HW1 2675   0.388   2.184   3.669
  952SOL    HW2 2676   0.229   2.152   3.691
  953SOL     OW 2677   1.466   3.279   2.815
  953SOL    HW1 2678   1.407   3.285   2.895
  953SOL    HW2 2679   1.451   3.191   2.769
  954SOL     OW 2680   1.667   3.576   2.434
  954SOL    HW1 2681   1.626   3.553   2.346
  954SOL    HW2 2682   1.649   3.502   2.499
  955SOL     OW 2683   0.598   2.591   2.132
  955SOL    HW1 2684   0.622   2.660   2.064
  955SOL    HW2 2685   0.520   2.624   2.186
  956SOL     OW 2686   1.281   2.207   2.806
  956SOL    HW1 2687   1.195   2.157   2.793
  956SOL    HW2 2688   1.343   2.153   2.862
  957SOL     OW 2689   1.576   3.524   2.169
  957SOL    HW1 2690   1.665   3.570   2.172
  957SOL    HW2 2691   1.555   3.500   2.074
  958SOL     OW 2692   0.807   2.467   3.327
  958SOL    HW1 2693   0.760   2.464   3.416
  958SOL    HW2 2694   0.756   2.412   3.261
  959SOL     OW 2695   1.394   2.331   3.536
  959SOL    HW1 2696   1.374   2.374   3.624
  959SOL    HW2 2697   1.472   2.269   3.545
  960SOL     OW 2698   0.973   2.752   3.434
  960SOL    HW1 2699   1.019   2.668   3.405
  960SOL    HW2 2700   0.917   2.786   3.359
  961SOL     OW 2701   0.991   2.272   3.104
  961SOL    HW1 2702   0.914   2.306   3.158
  961SOL    HW2 2703   0.957   2.221   3.025
  962SOL     OW 2704   1.041   2.563   2.291
  962SOL    HW1 2705   1.067   2.559   2.387
  962SOL    HW2 2706   0.956   2.512   2.277
  963SOL     OW 2707   0.076   2.673   2.651
  963SOL    HW1 2708   0.175   2.661   2.660
  963SOL    HW2 2709   0.052   2.768   2.672
  964SOL     OW 2710   0.130   3.683   3.433
  964SOL    HW1 2711   0.120   3.668   3.532
  964SOL    HW2 2712   0.044   3.719   3.397
  965SOL     OW 2713   0.865   2.210   2.057
  965SOL    HW1 2714   0.924   2.273   2.008
  965SOL    HW2 2715   0.884   2.116   2.028
  966SOL     OW 2716   1.719   2.447   3.693
  966SOL    HW1 2717   1.693   2.536   3.657
  966SOL    HW2 2718   1.717   2.379   3.620
  967SOL     OW 2719   1.362   3.006   2.407
  967SOL    HW1 2720   1.445   2.977   2.359
  967SOL    HW2 2721   1.313   3.073   2.351
  968SOL     OW 2722   0.550   2.058   2.747
  968SOL    HW1 2723   0.545   2.053   2.847
  968SOL    HW2 2724   0.552   2.154   2.718
  969SOL     OW 2725   1.008   3.318   2.339
  969SOL    HW1 2726   0.962   3.390   2.287
  969SOL    HW2 2727   1.004   3.338   2.437
  970SOL     OW 2728   0.351   3.663   2.715
  970SOL    HW1 2729   0.401   3.577   2.721
  970SOL    HW2 2730   0.416   3.740   2.712
  971SOL     OW 2731   1.227   3.412   3.368
  971SOL    HW1 2732   1.233   3.335   3.432
  971SOL    HW2 2733   1.175   3.386   3.288
  972SOL     OW 2734   0.321   2.805   2.104
  972SOL    HW1 2735   0.403   2.844   2.062
  972SOL    HW2 2736   0.294   2.723   2.055
  973SOL     OW 2737   0.461   3.128   3.589
  973SOL    HW1 2738   0.411   3.129   3.503
  973SOL    HW2 2739   0.398   3.110   3.665
  974SOL     OW 2740   1.111   3.638   2.099
  974SOL    HW1 2741   1.051   3.576   2.149
  974SOL    HW2 2742   1.142   3.594   2.014
  975SOL     OW 2743   0.202   2.147   3.360
  975SOL    HW1 2744   0.122   2.207   3.347
  975SOL    HW2 2745   0.192   2.098   3.446
  976SOL     OW 2746   1.632   3.239   1.943
  976SOL    HW1 2747   1.600   3.333   1.933
  976SOL    HW2 2748   1.556   3.176   1.931
  977SOL     OW 2749   0.464   3.605   2.185
  977SOL    HW1 2750   0.497   3.644   2.271
  977SOL    HW2 2751   0.540   3.598   2.120
  978SOL     OW 2752   1.400   1.969   2.288
  978SOL    HW1 2753   1.376   1.932   2.198
  978SOL    HW2 2754   1.499   1.985   2.292
  979SOL     OW 2755   0.249   3.647   3.103
  979SOL    HW1 2756   0.306   3.582   3.153
  979SOL    HW2 2757   0.233   3.614   3.010
  980SOL     OW 2758   0.940   3.560   2.766
  980SOL    HW1 2759   1.020   3.503   2.787
  980SOL    HW2 2760   0.891   3.520   2.689
  981SOL     OW 2761   0.382   2.562   2.342
  981SOL    HW1 2762   0.427   2.472   2.339
  981SOL    HW2 2763   0.288   2.551   2.375
  982SOL     OW 2764   1.547   2.084   3.591
  982SOL    HW1 2765   1.542   2.121   3.683
  982SOL    HW2 2766   1.475   2.015   3.579
  983SOL     OW 2767   0.614   1.984   1.979
  983SOL    HW1 2768   0.712   1.962   1.986
  983SOL    HW2 2769   0.583   1.967   1.886
  984SOL     OW 2770   0.781   2.126   3.611
  984SOL    HW1 2771   0.848   2.065   3.654
  984SOL    HW2 2772   0.708   2.145   3.676
  985SOL     OW 2773   0.888   3.376   3.057
  985SOL    HW1 2774   0.865   3.351   2.963
  985SOL    HW2 2775   0.949   3.307   3.096
  986SOL     OW 2776   1.351   2.452   3.295
  986SOL    HW1 2777   1.379   2.409   3.380
  986SOL    HW2 2778   1.376   2.548   3.296
  987SOL     OW 2779   0.803   3.264   2.786
  987SOL    HW1 2780   0.893   3.278   2.744
  987SOL    HW2 2781   0.732   3.266   2.715
  988SOL     OW 2782   0.922   2.365   2.761
  988SOL    HW1 2783   0.897   2.356   2.665
  988SOL    HW2 2784   0.970   2.283   2.792
  989SOL     OW 2785   0.539   1.926   2.374
  989SOL    HW1 2786   0.458   1.927   2.432
  989SOL    HW2 2787   0.542   2.009   2.319
  990SOL     OW 2788   1.434   3.050   1.903
  990SOL    HW1 2789   1.466   2.974   1.960
  990SOL    HW2 2790   1.342   3.077   1.933
  991SOL     OW 2791   0.297   1.897   2.033
  991SOL    HW1 2792   0.346   1.981   2.012
  991SOL    HW2 2793   0.359   1.832   2.078
  992SOL     OW 2794   0.935   2.098   2.342
  992SOL    HW1 2795   0.887   2.139   2.264
  992SOL    HW2 2796   1.034   2.096   2.323
  993SOL     OW 2797   1.076   2.545   3.326
  993SOL    HW1 2798   0.996   2.484   3.329
  993SOL    HW2 2799   1.157   2.492   3.302
  994SOL     OW 2800   1.227   3.432   2.655
  994SOL    HW1 2801   1.248   3.506   2.590
  994SOL    HW2 2802   1.295   3.432   2.728
  995SOL     OW 2803   0.459   3.014   2.603
  995SOL    HW1 2804   0.388   2.987   2.668
  995SOL    HW2 2805   0.433   2.986   2.510
  996SOL     OW 2806   1.271   3.659   2.453
  996SOL    HW1 2807   1.315   3.723   2.389
  996SOL    HW2 2808   1.221   3.711   2.523
  997SOL     OW 2809   1.032   2.411   1.878
  997SOL    HW1 2810   0.991   2.493   1.839
  997SOL    HW2 2811   1.096   2.437   1.951
  998SOL     OW 2812   0.078   2.418   3.248
  998SOL    HW1 2813   0.170   2.417   3.207
  998SOL    HW2 2814   0.072   2.492   3.315
  999SOL     OW 2815   0.561   2.084   3.009
  999SOL    HW1 2816   0.599   2.000   3.046
  999SOL    HW2 2817   0.473   2.103   3.053
 1000SOL     OW 2818   0.866   2.316   2.504
 1000SOL    HW1 2819   0.834   2.388   2.442
 1000SOL    HW2 2820   0.890   2.235   2.451
 1001SOL     OW 2821   1.017   1.901   2.615
 1001SOL    HW1 2822   0.945   1.906   2.546
 1001SOL    HW2 2823   0.993   1.832   2.684
 1002SOL     OW 2824   0.488   3.247   2.036
 1002SOL    HW1 2825   0.401   3.232   2.083
 1002SOL    HW2 2826   0.471   3.273   1.941
 1003SOL     OW 2827   1.664   3.142   2.519
 1003SOL    HW1 2828   1.763   3.150   2.533
 1003SOL    HW2 2829   1.619   3.226   2.550
 1004SOL     OW 2830   1.390   2.437   1.940
 1004SOL    HW1 2831   1.336   2.416   2.021
 1004SOL    HW2 2832   1.481   2.396   1.949
 1005SOL     OW 2833   0.527   2.118   2.190
 1005SOL    HW1 2834   0.554   2.059   2.115
 1005SOL    HW2 2835   0.527   2.213   2.159
 1006SOL     OW 2836   1.754   3.085   3.450
 1006SOL    HW1 2837   1.845   3.046   3.437
 1006SOL    HW2 2838   1.762   3.181   3.474
 1007SOL     OW 2839   1.064   3.209   3.202
 1007SOL    HW1 2840   0.984   3.186   3.257
 1007SOL    HW2 2841   1.147   3.183   3.251
 1008SOL     OW 2842   1.592   3.491   3.487
 1008SOL    HW1 2843   1.619   3.525   3.397
 1008SOL    HW2 2844   1.671   3.453   3.533
 1009SOL     OW 2845   1.111   3.057   2.962
 1009SOL    HW1 2846   1.071   3.101   3.043
 1009SOL    HW2 2847   1.070   3.094   2.879
 1010SOL     OW 2848   1.638   2.961   2.941
 1010SOL    HW1 2849   1.643   3.042   3.000
 1010SOL    HW2 2850   1.552   2.963   2.890
 1011SOL     OW 2851   0.915   1.951   3.264
 1011SOL    HW1 2852   0.940   1.931   3.169
 1011SOL    HW2 2853   0.987   2.007   3.306
 1012SOL     OW 2854   0.980   2.978   3.581
 1012SOL    HW1 2855   0.881   2.984   3.591
 1012SOL    HW2 2856   1.003   2.898   3.525
 1013SOL     OW 2857   0.705   2.912   2.230
 1013SOL    HW1 2858   0.691   2.919   2.329
 1013SOL    HW2 2859   0.789   2.861   2.212
 1014SOL     OW 2860   0.410   2.675   3.113
 1014SOL    HW1 2861   0.496   2.687   3.163
 1014SOL    HW2 2862   0.368   2.588   3.140
 1015SOL     OW 2863   1.274   2.248   3.124
 1015SOL    HW1 2864   1.295   2.322   3.188
 1015SOL    HW2 2865   1.185   2.265   3.081
 1016SOL     OW 2866   0.064   3.426   3.193
 1016SOL    HW1 2867   0.018   3.508   3.159
 1016SOL    HW2 2868   0.162   3.445   3.202
 1017SOL     OW 2869   0.367   2.962   2.363
 1017SOL    HW1 2870   0.360   3.045   2.307
 1017SOL    HW2 2871   0.371   2.882   2.303
 1018SOL     OW 2872   0.566   2.399   2.727
 1018SOL    HW1 2873   0.578   2.465   2.653
 1018SOL    HW2 2874   0.612   2.433   2.810
 1019SOL     OW 2875   1.252   3.210   2.250
 1019SOL    HW1 2876   1.302   3.287   2.290
 1019SOL    HW2 2877   1.157   3.212   2.282
 1020SOL     OW 2878   1.272   3.307   3.004
 1020SOL    HW1 2879   1.319   3.320   3.091
 1020SOL    HW2 2880   1.206   3.233   3.013
 1021SOL     OW 2881   1.582   2.501   2.334
 1021SOL    HW1 2882   1.551   2.562   2.407
 1021SOL    HW2 2883   1.632   2.553   2.265
 1022SOL     OW 2884   0.354   3.372   3.191
 1022SOL    HW1 2885   0.333   3.328   3.104
 1022SOL    HW2 2886   0.451   3.398   3.194
 1023SOL     OW 2887   0.402   2.613   3.460
 1023SOL    HW1 2888   0.470   2.668   3.413
 1023SOL    HW2 2889   0.442   2.525   3.487
 1024SOL     OW 2890   1.587   2.641   3.532
 1024SOL    HW1 2891   1.495   2.679   3.527
 1024SOL    HW2 2892   1.647   2.688   3.467
 1025SOL     OW 2893   1.013   1.967   3.632
 1025SOL    HW1 2894   1.019   2.052   3.580
 1025SOL    HW2 2895   1.045   1.891   3.575
 1026SOL     OW 2896   0.504   1.912   3.602
 1026SOL    HW1 2897   0.462   1.855   3.532
 1026SOL    HW2 2898   0.438   1.981   3.634
 1027SOL     OW 2899   0.573   2.732   2.891
 1027SOL    HW1 2900   0.617   2.821   2.882
 1027SOL    HW2 2901   0.510   2.732   2.968
 1028SOL     OW 2902   1.209   2.387   2.137
 1028SOL    HW1 2903   1.222   2.303   2.191
 1028SOL    HW2 2904   1.180   2.461   2.197
 1029SOL     OW 2905   0.307   2.075   3.093
 1029SOL    HW1 2906   0.284   2.112   3.183
 1029SOL    HW2 2907   0.277   1.980   3.087
 1030SOL     OW 2908   0.037   3.172   3.144
 1030SOL    HW1 2909   0.090   3.123   3.212
 1030SOL    HW2 2910   0.059   3.270   3.149
 1031SOL     OW 2911   0.732   2.496   2.926
 1031SOL    HW1 2912   0.791   2.470   2.850
 1031SOL    HW2 2913   0.704   2.592   2.915
 1032SOL     OW 2914   1.728   2.797   3.716
 1032SOL    HW1 2915   1.682   2.790   3.627
 1032SOL    HW2 2916   1.666   2.841   3.782
 1033SOL     OW 2917   0.307   1.925   2.480
 1033SOL    HW1 2918   0.296   2.019   2.513
 1033SOL    HW2 2919   0.302   1.862   2.557
 1034SOL     OW 2920   1.622   2.229   2.236
 1034SOL    HW1 2921   1.624   2.153   2.300
 1034SOL    HW2 2922   1.574   2.306   2.276
 1035SOL     OW 2923   1.023   2.628   2.828
 1035SOL    HW1 2924   1.038   2.649   2.924
 1035SOL    HW2 2925   0.993   2.533   2.819
 1036SOL     OW 2926   0.980   3.435   3.562
 1036SOL    HW1 2927   0.960   3.479   3.474
 1036SOL    HW2 2928   1.019   3.344   3.546
 1037SOL     OW 2929   1.859   3.380   3.467
 1037SOL    HW1 2930   1.873   3.407   3.372
 1037SOL    HW2 2931   1.942   3.402   3.520
 1038SOL     OW 2932   0.350   2.760   3.666
 1038SOL    HW1 2933   0.426   2.804   3.714
 1038SOL    HW2 2934   0.385   2.713   3.584
 1039SOL     OW 2935   1.540   2.136   1.987
 1039SOL    HW1 2936   1.479   2.061   2.010
 1039SOL    HW2 2937   1.562   2.188   2.070
 1040SOL     OW 2938   1.303   2.700   1.904
 1040SOL    HW1 2939   1.337   2.607   1.919
 1040SOL    HW2 2940   1.321   2.727   1.809
 1041SOL     OW 2941   1.068   3.195   2.711
 1041SOL    HW1 2942   1.075   3.111   2.656
 1041SOL    HW2 2943   1.130   3.264   2.675
 1042SOL     OW 2944   0.319   2.672   2.811
 1042SOL    HW1 2945   0.412   2.708   2.816
 1042SOL    HW2 2946   0.313   2.587   2.863
 1043SOL     OW 2947   0.339   2.371   2.868
 1043SOL    HW1 2948   0.287   2.288   2.851
 1043SOL    HW2 2949   0.416   2.376   2.804
 1044SOL     OW 2950   1.138   2.242   3.540
 1044SOL    HW1 2951   1.093   2.305   3.604
 1044SOL    HW2 2952   1.231   2.273   3.523
 1045SOL     OW 2953   1.160   2.069   3.339
 1045SOL    HW1 2954   1.160   2.133   3.416
 1045SOL    HW2 2955   1.188   2.117   3.256
 1046SOL     OW 2956   0.008   3.188   2.062
 1046SOL    HW1 2957  -0.085   3.209   2.031
 1046SOL    HW2 2958   0.018   3.089   2.075
 1047SOL     OW 2959   0.088   3.663   2.789
 1047SOL    HW1 2960   0.046   3.577   2.762
 1047SOL    HW2 2961   0.182   3.666   2.755
 1048SOL     OW 2962   0.504   3.430   2.772
 1048SOL    HW1 2963   0.570   3.504   2.781
 1048SOL    HW2 2964   0.548   3.351   2.730
 1049SOL     OW 2965   1.002   2.658   3.100
 1049SOL    HW1 2966   1.043   2.626   3.186
 1049SOL    HW2 2967   0.906   2.631   3.097
 1050SOL     OW 2968   0.040   2.406   2.976
 1050SOL    HW1 2969   0.125   2.373   2.935
 1050SOL    HW2 2970   0.053   2.421   3.074
 1051SOL     OW 2971   0.189   2.382   3.584
 1051SOL    HW1 2972   0.248   2.342   3.514
 1051SOL    HW2 2973   0.131   2.453   3.543
 1052SOL     OW 2974   1.369   2.812   3.522
 1052SOL    HW1 2975   1.408   2.901   3.542
 1052SOL    HW2 2976   1.379   2.792   3.425
 1053SOL     OW 2977   0.815   2.434   2.187
 1053SOL    HW1 2978   0.822   2.345   2.141
 1053SOL    HW2 2979   0.721   2.468   2.179
 1054SOL     OW 2980   1.657   2.466   3.068
 1054SOL    HW1 2981   1.619   2.397   3.130
 1054SOL    HW2 2982   1.739   2.430   3.024
 1055SOL     OW 2983   0.252   3.426   3.606
 1055SOL    HW1 2984   0.222   3.483   3.682
 1055SOL    HW2 2985   0.245   3.329   3.632
 1056SOL     OW 2986   0.671   2.326   3.131
 1056SOL    HW1 2987   0.637   2.237   3.101
 1056SOL    HW2 2988   0.697   2.380   3.051
 1057SOL     OW 2989   0.930   3.540   3.327
 1057SOL    HW1 2990   0.906   3.522   3.232
 1057SOL    HW2 2991   0.960   3.634   3.337
 1058SOL     OW 2992   0.473   2.362   2.053
 1058SOL    HW1 2993   0.534   2.442   2.057
 1058SOL    HW2 2994   0.378   2.393   2.060
 1059SOL     OW 2995   0.159   2.999   3.328
 1059SOL    HW1 2996   0.181   2.938   3.404
 1059SOL    HW2 2997   0.169   2.950   3.242
 1060SOL     OW 2998   1.302   2.717   2.171
 1060SOL    HW1 2999   1.216   2.686   2.213
 1060SOL    HW2 3000   1.298   2.703   2.072
 1061SOL     OW 3001   1.759   3.609   3.016
 1061SOL    HW1 3002   1.820   3.639   2.943
 1061SOL    HW2 3003   1.721   3.520   2.994
 1062SOL     OW 3004   1.252   3.593   2.990
 1062SOL    HW1 3005   1.336   3.598   2.936
 1062SOL    HW2 3006   1.229   3.497   3.008
 1063SOL     OW 3007   0.083   3.120   2.884
 1063SOL    HW1 3008   0.078   3.119   2.984
 1063SOL    HW2 3009   0.000   3.079   2.846
 1064SOL     OW 3010   0.688   3.524   3.578
 1064SOL    HW1 3011   0.632   3.605   3.587
 1064SOL    HW2 3012   0.740   3.528   3.492
 1065SOL     OW 3013   1.726   1.997   2.385
 1065SOL    HW1 3014   1.799   1.980   2.318
 1065SOL    HW2 3015   1.695   1.910   2.423
 1066SOL     OW 3016   1.388   3.435   2.339
 1066SOL    HW1 3017   1.455   3.447   2.265
 1066SOL    HW2 3018   1.348   3.524   2.362
 1067SOL     OW 3019   0.130   3.656   3.713
 1067SOL    HW1 3020   0.089   3.582   3.766
 1067SOL    HW2 3021   0.194   3.707   3.771
 1068SOL     OW 3022   0.830   3.135   3.284
 1068SOL    HW1 3023   0.825   3.168   3.379
 1068SOL    HW2 3024   0.744   3.154   3.238
 1069SOL     OW 3025   0.672   3.478   2.016
 1069SOL    HW1 3026   0.681   3.488   1.917
 1069SOL    HW2 3027   0.632   3.389   2.037
 1070SOL     OW 3028   1.650   3.582   3.256
 1070SOL    HW1 3029   1.703   3.592   3.172
 1070SOL    HW2 3030   1.623   3.672   3.290
 1071SOL     OW 3031   1.841   2.037   2.825
 1071SOL    HW1 3032   1.880   1.952   2.789
 1071SOL    HW2 3033   1.743   2.039   2.806
 1072SOL     OW 3034   0.263   2.188   2.582
 1072SOL    HW1 3035   0.184   2.239   2.548
 1072SOL    HW2 3036   0.254   2.173   2.680
 1073SOL     OW 3037   1.194   3.474   1.893
 1073SOL    HW1 3038   1.200   3.381   1.930
 1073SOL    HW2 3039   1.135   3.474   1.813
 1074SOL     OW 3040   0.822   2.864   3.234
 1074SOL    HW1 3041   0.862   2.863   3.142
 1074SOL    HW2 3042   0.832   2.956   3.274
 1075SOL     OW 3043   0.916   2.772   2.153
 1075SOL    HW1 3044   0.979   2.810   2.085
 1075SOL    HW2 3045   0.956   2.689   2.192
 1076SOL     OW 3046   1.504   3.469   1.906
 1076SOL    HW1 3047   1.412   3.506   1.913
 1076SOL    HW2 3048   1.542   3.489   1.816
 1077SOL     OW 3049   0.372   3.150   3.352
 1077SOL    HW1 3050   0.359   3.243   3.318
 1077SOL    HW2 3051   0.288   3.098   3.339
 1078SOL     OW 3052   1.614   3.154   3.151
 1078SOL    HW1 3053   1.674   3.157   3.231
 1078SOL    HW2 3054   1.539   3.218   3.164
 1079SOL     OW 3055   1.039   2.960   2.558
 1079SOL    HW1 3056   0.969   2.913   2.612
 1079SOL    HW2 3057   1.098   2.892   2.515
 1080SOL     OW 3058   1.014   2.098   2.833
 1080SOL    HW1 3059   1.006   2.062   2.740
 1080SOL    HW2 3060   1.012   2.022   2.898
 1081SOL     OW 3061   0.590   3.349   2.353
 1081SOL    HW1 3062   0.632   3.291   2.283
 1081SOL    HW2 3063   0.546   3.428   2.309
 1082SOL     OW 3064   1.709   2.247   3.243
 1082SOL    HW1 3065   1.782   2.316   3.247
 1082SOL    HW2 3066   1.737   2.172   3.184
 1083SOL     OW 3067   0.255   3.210   2.152
 1083SOL    HW1 3068   0.159   3.211   2.125
 1083SOL    HW2 3069   0.267   3.263   2.236
 1084SOL     OW 3070   0.105   2.875   3.588
 1084SOL    HW1 3071   0.028   2.842   3.642
 1084SOL    HW2 3072   0.190   2.845   3.630
 1085SOL     OW 3073   0.672   2.065   3.351
 1085SOL    HW1 3074   0.762   2.049   3.311
 1085SOL    HW2 3075   0.680   2.070   3.450
 1086SOL     OW 3076   0.075   2.207   1.895
 1086SOL    HW1 3077  -0.017   2.179   1.866
 1086SOL    HW2 3078   0.106   2.284   1.839
 1087SOL     OW 3079   1.440   2.718   3.260
 1087SOL    HW1 3080   1.383   2.770   3.197
 1087SOL    HW2 3081   1.536   2.730   3.236
 1088SOL     OW 3082   0.072   2.028   2.180
 1088SOL    HW1 3083   0.055   2.111   2.126
 1088SOL    HW2 3084   0.162   1.991   2.158
 1089SOL     OW 3085   1.183   3.197   1.981
 1089SOL    HW1 3086   1.084   3.186   1.983
 1089SOL    HW2 3087   1.217   3.212   2.074
 1090SOL     OW 3088   0.613   2.704   3.293
 1090SOL    HW1 3089   0.669   2.785   3.276
 1090SOL    HW2 3090   0.672   2.624   3.296
 1091SOL     OW 3091   1.493   3.629   2.821
 1091SOL    HW1 3092   1.526   3.693   2.752
 1091SOL    HW2 3093   1.559   3.623   2.896
 1092SOL     OW 3094   0.716   2.427   3.570
 1092SOL    HW1 3095   0.735   2.492   3.644
 1092SOL    HW2 3096   0.776   2.347   3.579
 1093SOL     OW 3097   1.450   3.082   3.495
 1093SOL    HW1 3098   1.441   3.072   3.594
 1093SOL    HW2 3099   1.546   3.075   3.469
 1094SOL     OW 3100   0.390   3.603   3.422
 1094SOL    HW1 3101   0.299   3.644   3.420
 1094SOL    HW2 3102   0.383   3.509   3.454
 1095SOL     OW 3103   1.674   2.745   3.116
 1095SOL    HW1 3104   1.647   2.656   3.079
 1095SOL    HW2 3105   1.675   2.813   3.043
 1096SOL     OW 3106   1.225   2.187   2.311
 1096SOL    HW1 3107   1.290   2.113   2.300
 1096SOL    HW2 3108   1.245   2.237   2.395
 1097SOL     OW 3109   0.594   2.607   2.514
 1097SOL    HW1 3110   0.644   2.692   2.495
 1097SOL    HW2 3111   0.506   2.609   2.466
 1098SOL     OW 3112   1.777   2.204   3.504
 1098SOL    HW1 3113   1.760   2.235   3.410
 1098SOL    HW2 3114   1.693   2.167   3.542
 1099SOL     OW 3115   1.730   2.796   3.379
 1099SOL    HW1 3116   1.768   2.887   3.394
 1099SOL    HW2 3117   1.722   2.779   3.280
 1100SOL     OW 3118   0.859   3.236   1.878
 1100SOL    HW1 3119   0.813   3.251   1.966
 1100SOL    HW2 3120   0.903   3.321   1.848
 1101SOL     OW 3121   0.661   3.652   2.815
 1101SOL    HW1 3122   0.615   3.740   2.802
 1101SOL    HW2 3123   0.760   3.664   2.808
 1102SOL     OW 3124   0.859   2.818   2.723
 1102SOL    HW1 3125   0.913   2.749   2.771
 1102SOL    HW2 3126   0.827   2.887   2.789
 1103SOL     OW 3127   1.083   2.846   1.949
 1103SOL    HW1 3128   1.060   2.899   1.867
 1103SOL    HW2 3129   1.164   2.790   1.930
 1104SOL     OW 3130   1.861   3.431   2.713
 1104SOL    HW1 3131   1.790   3.419   2.643
 1104SOL    HW2 3132   1.862   3.352   2.773
 1105SOL     OW 3133   0.221   3.176   3.706
 1105SOL    HW1 3134   0.156   3.103   3.685
 1105SOL    HW2 3135   0.225   3.190   3.804
 1106SOL     OW 3136   0.079   3.102   2.515
 1106SOL    HW1 3137   0.078   3.055   2.603
 1106SOL    HW2 3138   0.161   3.074   2.464
 1107SOL     OW 3139   0.672   3.253   3.486
 1107SOL    HW1 3140   0.594   3.203   3.524
 1107SOL    HW2 3141   0.669   3.348   3.517
 1108SOL     OW 3142   1.824   2.054   3.089
 1108SOL    HW1 3143   1.820   1.964   3.133
 1108SOL    HW2 3144   1.827   2.043   2.990
 1109SOL     OW 3145   0.428   2.286   2.382
 1109SOL    HW1 3146   0.458   2.214   2.320
 1109SOL    HW2 3147   0.389   2.246   2.465
 1110SOL     OW 3148   1.705   3.349   2.966
 1110SOL    HW1 3149   1.612   3.324   2.939
 1110SOL    HW2 3150   1.731   3.299   3.048
 1111SOL     OW 3151   0.317   2.409   3.142
 1111SOL    HW1 3152   0.355   2.350   3.214
 1111SOL    HW2 3153   0.357   2.383   3.054
 1112SOL     OW 3154   0.812   3.448   2.549
 1112SOL    HW1 3155   0.844   3.458   2.455
 1112SOL    HW2 3156   0.733   3.386   2.551
 1113SOL     OW 3157   1.424   2.076   2.974
 1113SOL    HW1 3158   1.476   2.011   3.029
 1113SOL    HW2 3159   1.375   2.139   3.035
 1114SOL     OW 3160   1.001   1.896   3.016
 1114SOL    HW1 3161   0.938   1.824   2.985
 1114SOL    HW2 3162   1.094   1.860   3.016
 1115SOL     OW 3163   0.770   3.192   2.163
 1115SOL    HW1 3164   0.724   3.105   2.180
 1115SOL    HW2 3165   0.861   3.189   2.204
 1116SOL     OW 3166   0.618   3.429   3.146
 1116SOL    HW1 3167   0.613   3.511   3.203
 1116SOL    HW2 3168   0.707   3.426   3.101
 1117SOL     OW 3169   1.352   1.914   2.030
 1117SOL    HW1 3170   1.387   1.873   1.946
 1117SOL    HW2 3171   1.262   1.876   2.050
 1118SOL     OW 3172   1.300   2.315   2.553
 1118SOL    HW1 3173   1.241   2.395   2.557
 1118SOL    HW2 3174   1.315   2.280   2.646
 1119SOL     OW 3175   1.593   2.083   2.744
 1119SOL    HW1 3176   1.509   2.082   2.798
 1119SOL    HW2 3177   1.595   2.166   2.688
 1120SOL     OW 3178   0.039   2.939   2.162
 1120SOL    HW1 3179   0.138   2.928   2.153
 1120SOL    HW2 3180  -0.001   2.853   2.194
 1121SOL     OW 3181   0.875   3.508   2.199
 1121SOL    HW1 3182   0.798   3.473   2.145
 1121SOL    HW2 3183   0.843   3.579   2.261
 1122SOL     OW 3184   0.230   2.490   3.837
 1122SOL    HW1 3185   0.137   2.488   3.874
 1122SOL    HW2 3186   0.231   2.451   3.745
 1123SOL     OW 3187   0.225   2.137   4.720
 1123SOL    HW1 3188   0.260   2.120   4.812
 1123SOL    HW2 3189   0.137   2.092   4.708
 1124SOL     OW 3190   0.019   2.230   4.371
 1124SOL    HW1 3191  -0.063   2.273   4.410
 1124SOL    HW2 3192  -0.009   2.157   4.308
 1125SOL     OW 3193   0.569   3.137   4.889
 1125SOL    HW1 3194   0.476   3.130   4.852
 1125SOL    HW2 3195   0.580   3.226   4.933
 1126SOL     OW 3196   1.555   3.373   4.427
 1126SOL    HW1 3197   1.498   3.357   4.508
 1126SOL    HW2 3198   1.496   3.383   4.347
 1127SOL     OW 3199   1.135   2.565   4.441
 1127SOL    HW1 3200   1.192   2.643   4.416
 1127SOL    HW2 3201   1.075   2.591   4.517
 1128SOL     OW 3202   1.755   2.469   3.955
 1128SOL    HW1 3203   1.743   2.456   3.856
 1128SOL    HW2 3204   1.725   2.388   4.004
 1129SOL     OW 3205   0.768   3.006   4.747
 1129SOL    HW1 3206   0.690   3.023   4.807
 1129SOL    HW2 3207   0.802   3.093   4.711
 1130SOL     OW 3208   0.685   2.874   4.389
 1130SOL    HW1 3209   0.754   2.858   4.459
 1130SOL    HW2 3210   0.612   2.931   4.427
 1131SOL     OW 3211   0.335   3.297   4.785
 1131SOL    HW1 3212   0.257   3.266   4.732
 1131SOL    HW2 3213   0.393   3.355   4.728
 1132SOL     OW 3214   1.603   2.309   4.461
 1132SOL    HW1 3215   1.529   2.355   4.411
 1132SOL    HW2 3216   1.654   2.377   4.514
 1133SOL     OW 3217   0.231   3.575   4.207
 1133SOL    HW1 3218   0.265   3.652   4.261
 1133SOL    HW2 3219   0.275   3.575   4.117
 1134SOL     OW 3220   0.230   3.296   4.262
 1134SOL    HW1 3221   0.204   3.392   4.262
 1134SOL    HW2 3222   0.159   3.242   4.307
 1135SOL     OW 3223   0.240   2.953   4.610
 1135SOL    HW1 3224   0.254   2.869   4.662
 1135SOL    HW2 3225   0.185   3.017   4.665
 1136SOL     OW 3226   0.620   3.648   5.163
 1136SOL    HW1 3227   0.528   3.631   5.198
 1136SOL    HW2 3228   0.648   3.740   5.189
 1137SOL     OW 3229   0.606   2.826   3.847
 1137SOL    HW1 3230   0.613   2.910   3.793
 1137SOL    HW2 3231   0.652   2.839   3.935
 1138SOL     OW 3232   0.122   2.505   4.287
 1138SOL    HW1 3233   0.077   2.417   4.304
 1138SOL    HW2 3234   0.121   2.559   4.371
 1139SOL     OW 3235   1.842   3.629   4.083
 1139SOL    HW1 3236   1.896   3.600   4.163
 1139SOL    HW2 3237   1.872   3.719   4.054
 1140SOL     OW 3238   0.027   3.458   3.841
 1140SOL    HW1 3239   0.008   3.362   3.862
 1140SOL    HW2 3240  -0.006   3.516   3.916
 1141SOL     OW 3241   1.689   2.784   4.336
 1141SOL    HW1 3242   1.784   2.755   4.344
 1141SOL    HW2 3243   1.681   2.849   4.261
 1142SOL     OW 3244   1.641   2.970   4.156
 1142SOL    HW1 3245   1.727   2.972   4.104
 1142SOL    HW2 3246   1.655   3.017   4.244
 1143SOL     OW 3247   0.613   3.227   4.450
 1143SOL    HW1 3248   0.564   3.140   4.459
 1143SOL    HW2 3249   0.590   3.270   4.363
 1144SOL     OW 3250   0.809   1.866   4.226
 1144SOL    HW1 3251   0.849   1.957   4.217
 1144SOL    HW2 3252   0.709   1.874   4.232
 1145SOL     OW 3253   0.197   2.838   4.988
 1145SOL    HW1 3254   0.286   2.793   4.974
 1145SOL    HW2 3255   0.124   2.773   4.969
 1146SOL     OW 3256   1.525   2.861   3.914
 1146SOL    HW1 3257   1.462   2.785   3.927
 1146SOL    HW2 3258   1.573   2.879   4.000
 1147SOL     OW 3259   1.466   3.279   4.677
 1147SOL    HW1 3260   1.407   3.285   4.757
 1147SOL    HW2 3261   1.451   3.191   4.631
 1148SOL     OW 3262   1.667   3.576   4.296
 1148SOL    HW1 3263   1.626   3.553   4.208
 1148SOL    HW2 3264   1.649   3.502   4.361
 1149SOL     OW 3265   0.598   2.591   3.994
 1149SOL    HW1 3266   0.622   2.660   3.926
 1149SOL    HW2 3267   0.520   2.624   4.048
 1150SOL     OW 3268   1.281   2.207   4.668
 1150SOL    HW1 3269   1.195   2.157   4.655
 1150SOL    HW2 3270   1.343   2.153   4.724
 1151SOL     OW 3271   1.576   3.524   4.031
 1151SOL    HW1 3272   1.665   3.570   4.034
 1151SOL    HW2 3273   1.555   3.500   3.936
 1152SOL     OW 3274   0.991   2.272   4.966
 1152SOL    HW1 3275   0.914   2.306   5.020
 1152SOL    HW2 3276   0.957   2.221   4.887
 1153SOL     OW 3277   1.041   2.563   4.153
 1153SOL    HW1 3278   1.067   2.559   4.249
 1153SOL    HW2 3279   0.956   2.512   4.139
 1154SOL     OW 3280   0.076   2.673   4.513
 1154SOL    HW1 3281   0.175   2.661   4.522
 1154SOL    HW2 3282   0.052   2.768   4.534
 1155SOL     OW 3283   0.130   3.683   5.295
 1155SOL    HW1 3284   0.120   3.668   5.394
 1155SOL    HW2 3285   0.044   3.719   5.259
 1156SOL     OW 3286   0.865   2.210   3.919
 1156SOL    HW1 3287   0.924   2.273   3.870
 1156SOL    HW2 3288   0.884   2.116   3.890
 1157SOL     OW 3289   1.362   3.006   4.269
 1157SOL    HW1 3290   1.445   2.977   4.221
 1157SOL    HW2 3291   1.313   3.073   4.213
 1158SOL     OW 3292   0.550   2.058   4.609
 1158SOL    HW1 3293   0.545   2.053   4.709
 1158SOL    HW2 3294   0.552   2.154   4.580
 1159SOL     OW 3295   1.008   3.318   4.201
 1159SOL    HW1 3296   0.962   3.390   4.149
 1159SOL    HW2 3297   1.004   3.338   4.299
 1160SOL     OW 3298   0.351   3.663   4.577
 1160SOL    HW1 3299   0.401   3.577   4.583
 1160SOL    HW2 3300   0.416   3.740   4.574
 1161SOL     OW 3301   1.795   2.928   4.597
 1161SOL    HW1 3302   1.733   2.913   4.521
 1161SOL    HW2 3303   1.743   2.939   4.682
 1162SOL     OW 3304   0.321   2.805   3.966
 1162SOL    HW1 3305   0.403   2.844   3.924
 1162SOL    HW2 3306   0.294   2.723   3.917
 1163SOL     OW 3307   1.458   2.597   4.452
 1163SOL    HW1 3308   1.453   2.532   4.527
 1163SOL    HW2 3309   1.538   2.656   4.465
 1164SOL     OW 3310   1.111   3.638   3.961
 1164SOL    HW1 3311   1.051   3.576   4.011
 1164SOL    HW2 3312   1.142   3.594   3.876
 1165SOL     OW 3313   1.632   3.239   3.805
 1165SOL    HW1 3314   1.600   3.333   3.795
 1165SOL    HW2 3315   1.556   3.176   3.793
 1166SOL     OW 3316   0.464   3.605   4.047
 1166SOL    HW1 3317   0.497   3.644   4.133
 1166SOL    HW2 3318   0.540   3.598   3.982
 1167SOL     OW 3319   1.400   1.969   4.150
 1167SOL    HW1 3320   1.376   1.932   4.060
 1167SOL    HW2 3321   1.499   1.985   4.154
 1168SOL     OW 3322   0.249   3.647   4.965
 1168SOL    HW1 3323   0.306   3.582   5.015
 1168SOL    HW2 3324   0.233   3.614   4.872
 1169SOL     OW 3325   0.940   3.560   4.628
 1169SOL    HW1 3326   1.020   3.503   4.649
 1169SOL    HW2 3327   0.891   3.520   4.551
 1170SOL     OW 3328   0.382   2.562   4.204
 1170SOL    HW1 3329   0.427   2.472   4.201
 1170SOL    HW2 3330   0.288   2.551   4.237
 1171SOL     OW 3331   0.614   1.984   3.841
 1171SOL    HW1 3332   0.712   1.962   3.848
 1171SOL    HW2 3333   0.583   1.967   3.748
 1172SOL     OW 3334   0.803   3.264   4.648
 1172SOL    HW1 3335   0.893   3.278   4.606
 1172SOL    HW2 3336   0.732   3.266   4.577
 1173SOL     OW 3337   0.922   2.365   4.623
 1173SOL    HW1 3338   0.897   2.356   4.527
 1173SOL    HW2 3339   0.970   2.283   4.654
 1174SOL     OW 3340   0.539   1.926   4.236
 1174SOL    HW1 3341   0.458   1.927   4.294
 1174SOL    HW2 3342   0.542   2.009   4.181
 1175SOL     OW 3343   1.434   3.050   3.765
 1175SOL    HW1 3344   1.466   2.974   3.822
 1175SOL    HW2 3345   1.342   3.077   3.795
 1176SOL     OW 3346   0.297   1.897   3.895
 1176SOL    HW1 3347   0.346   1.981   3.874
 1176SOL    HW2 3348   0.359   1.832   3.940
 1177SOL     OW 3349   0.935   2.098   4.204
 1177SOL    HW1 3350   0.887   2.139   4.126
 1177SOL    HW2 3351   1.034   2.096   4.185
 1178SOL     OW 3352   1.227   3.432   4.517
 1178SOL    HW1 3353   1.248   3.506   4.452
 1178SOL    HW2 3354   1.295   3.432   4.590
 1179SOL     OW 3355   0.459   3.014   4.465
 1179SOL    HW1 3356   0.388   2.987   4.530
 1179SOL    HW2 3357   0.433   2.986   4.372
 1180SOL     OW 3358   1.271   3.659   4.315
 1180SOL    HW1 3359   1.315   3.723   4.251
 1180SOL    HW2 3360   1.221   3.711   4.385
 1181SOL     OW 3361   1.032   2.411   3.740
 1181SOL    HW1 3362   0.991   2.493   3.701
 1181SOL    HW2 3363   1.096   2.437   3.813
 1182SOL     OW 3364   0.561   2.084   4.871
 1182SOL    HW1 3365   0.599   2.000   4.908
 1182SOL    HW2 3366   0.473   2.103   4.915
 1183SOL     OW 3367   0.866   2.316   4.366
 1183SOL    HW1 3368   0.834   2.388   4.304
 1183SOL    HW2 3369   0.890   2.235   4.313
 1184SOL     OW 3370   1.017   1.901   4.477
 1184SOL    HW1 3371   0.945   1.906   4.408
 1184SOL    HW2 3372   0.993   1.832   4.546
 1185SOL     OW 3373   1.429   3.035   4.591
 1185SOL    HW1 3374   1.374   2.951   4.584
 1185SOL    HW2 3375   1.455   3.064   4.499
 1186SOL     OW 3376   1.466   2.452   4.716
 1186SOL    HW1 3377   1.436   2.357   4.723
 1186SOL    HW2 3378   1.539   2.468   4.782
 1187SOL     OW 3379   1.857   2.695   4.101
 1187SOL    HW1 3380   1.899   2.631   4.165
 1187SOL    HW2 3381   1.819   2.644   4.023
 1188SOL     OW 3382   0.488   3.247   3.898
 1188SOL    HW1 3383   0.401   3.232   3.945
 1188SOL    HW2 3384   0.471   3.273   3.803
 1189SOL     OW 3385   1.664   3.142   4.381
 1189SOL    HW1 3386   1.763   3.150   4.395
 1189SOL    HW2 3387   1.619   3.226   4.412
 1190SOL     OW 3388   1.390   2.437   3.802
 1190SOL    HW1 3389   1.336   2.416   3.883
 1190SOL    HW2 3390   1.481   2.396   3.811
 1191SOL     OW 3391   0.527   2.118   4.052
 1191SOL    HW1 3392   0.554   2.059   3.977
 1191SOL    HW2 3393   0.527   2.213   4.021
 1192SOL     OW 3394   1.111   3.057   4.824
 1192SOL    HW1 3395   1.071   3.101   4.905
 1192SOL    HW2 3396   1.070   3.094   4.741
 1193SOL     OW 3397   1.638   2.961   4.803
 1193SOL    HW1 3398   1.643   3.042   4.862
 1193SOL    HW2 3399   1.552   2.963   4.752
 1194SOL     OW 3400   0.705   2.912   4.092
 1194SOL    HW1 3401   0.691   2.919   4.191
 1194SOL    HW2 3402   0.789   2.861   4.074
 1195SOL     OW 3403   0.410   2.675   4.975
 1195SOL    HW1 3404   0.496   2.687   5.025
 1195SOL    HW2 3405   0.368   2.588   5.002
 1196SOL     OW 3406   1.274   2.248   4.986
 1196SOL    HW1 3407   1.295   2.322   5.050
 1196SOL    HW2 3408   1.185   2.265   4.943
 1197SOL     OW 3409   0.367   2.962   4.225
 1197SOL    HW1 3410   0.360   3.045   4.169
 1197SOL    HW2 3411   0.371   2.882   4.165
 1198SOL     OW 3412   0.566   2.399   4.589
 1198SOL    HW1 3413   0.578   2.465   4.515
 1198SOL    HW2 3414   0.612   2.433   4.672
 1199SOL     OW 3415   1.252   3.210   4.112
 1199SOL    HW1 3416   1.302   3.287   4.152
 1199SOL    HW2 3417   1.157   3.212   4.144
 1200SOL     OW 3418   1.272   3.307   4.866
 1200SOL    HW1 3419   1.319   3.320   4.953
 1200SOL    HW2 3420   1.206   3.233   4.875
 1201SOL     OW 3421   1.582   2.501   4.196
 1201SOL    HW1 3422   1.551   2.562   4.269
 1201SOL    HW2 3423   1.632   2.553   4.127
 1202SOL     OW 3424   0.354   3.372   5.053
 1202SOL    HW1 3425   0.333   3.328   4.966
 1202SOL    HW2 3426   0.451   3.398   5.056
 1203SOL     OW 3427   0.573   2.732   4.753
 1203SOL    HW1 3428   0.617   2.821   4.744
 1203SOL    HW2 3429   0.510   2.732   4.830
 1204SOL     OW 3430   1.360   2.724   4.769
 1204SOL    HW1 3431   1.285   2.724   4.703
 1204SOL    HW2 3432   1.397   2.632   4.778
 1205SOL     OW 3433   1.209   2.387   3.999
 1205SOL    HW1 3434   1.222   2.303   4.053
 1205SOL    HW2 3435   1.180   2.461   4.059
 1206SOL     OW 3436   0.307   2.075   4.955
 1206SOL    HW1 3437   0.284   2.112   5.045
 1206SOL    HW2 3438   0.277   1.980   4.949
 1207SOL     OW 3439   0.037   3.172   5.006
 1207SOL    HW1 3440   0.090   3.123   5.074
 1207SOL    HW2 3441   0.059   3.270   5.011
 1208SOL     OW 3442   0.732   2.496   4.788
 1208SOL    HW1 3443   0.791   2.470   4.712
 1208SOL    HW2 3444   0.704   2.592   4.777
 1209SOL     OW 3445   0.307   1.925   4.342
 1209SOL    HW1 3446   0.296   2.019   4.375
 1209SOL    HW2 3447   0.302   1.862   4.419
 1210SOL     OW 3448   1.622   2.229   4.098
 1210SOL    HW1 3449   1.624   2.153   4.162
 1210SOL    HW2 3450   1.574   2.306   4.138
 1211SOL     OW 3451   1.023   2.628   4.690
 1211SOL    HW1 3452   1.038   2.649   4.786
 1211SOL    HW2 3453   0.993   2.533   4.681
 1212SOL     OW 3454   1.540   2.136   3.849
 1212SOL    HW1 3455   1.479   2.061   3.872
 1212SOL    HW2 3456   1.562   2.188   3.932
 1213SOL     OW 3457   1.303   2.700   3.766
 1213SOL    HW1 3458   1.337   2.607   3.781
 1213SOL    HW2 3459   1.321   2.727   3.671
 1214SOL     OW 3460   1.068   3.195   4.573
 1214SOL    HW1 3461   1.075   3.111   4.518
 1214SOL    HW2 3462   1.130   3.264   4.537
 1215SOL     OW 3463   0.319   2.672   4.673
 1215SOL    HW1 3464   0.412   2.708   4.678
 1215SOL    HW2 3465   0.313   2.587   4.725
 1216SOL     OW 3466   0.339   2.371   4.730
 1216SOL    HW1 3467   0.287   2.288   4.713
 1216SOL    HW2 3468   0.416   2.376   4.666
 1217SOL     OW 3469   1.160   2.069   5.201
 1217SOL    HW1 3470   1.160   2.133   5.278
 1217SOL    HW2 3471   1.188   2.117   5.118
 1218SOL     OW 3472   0.008   3.188   3.924
 1218SOL    HW1 3473  -0.085   3.209   3.893
 1218SOL    HW2 3474   0.018   3.089   3.937
 1219SOL     OW 3475   0.088   3.663   4.651
 1219SOL    HW1 3476   0.046   3.577   4.624
 1219SOL    HW2 3477   0.182   3.666   4.617
 1220SOL     OW 3478   0.504   3.430   4.634
 1220SOL    HW1 3479   0.570   3.504   4.643
 1220SOL    HW2 3480   0.548   3.351   4.592
 1221SOL     OW 3481   1.002   2.658   4.962
 1221SOL    HW1 3482   1.043   2.626   5.048
 1221SOL    HW2 3483   0.906   2.631   4.959
 1222SOL     OW 3484   0.040   2.406   4.838
 1222SOL    HW1 3485   0.125   2.373   4.797
 1222SOL    HW2 3486   0.053   2.421   4.936
 1223SOL     OW 3487   0.815   2.434   4.049
 1223SOL    HW1 3488   0.822   2.345   4.003
 1223SOL    HW2 3489   0.721   2.468   4.041
 1224SOL     OW 3490   1.657   2.466   4.930
 1224SOL    HW1 3491   1.619   2.397   4.992
 1224SOL    HW2 3492   1.739   2.430   4.886
 1225SOL     OW 3493   0.671   2.326   4.993
 1225SOL    HW1 3494   0.637   2.237   4.963
 1225SOL    HW2 3495   0.697   2.380   4.913
 1226SOL     OW 3496   0.930   3.540   5.189
 1226SOL    HW1 3497   0.906   3.522   5.094
 1226SOL    HW2 3498   0.960   3.634   5.199
 1227SOL     OW 3499   0.473   2.362   3.915
 1227SOL    HW1 3500   0.534   2.442   3.919
 1227SOL    HW2 3501   0.378   2.393   3.922
 1228SOL     OW 3502   1.347   2.921   4.958
 1228SOL    HW1 3503   1.371   2.858   4.884
 1228SOL    HW2 3504   1.257   2.961   4.940
 1229SOL     OW 3505   1.302   2.717   4.033
 1229SOL    HW1 3506   1.216   2.686   4.075
 1229SOL    HW2 3507   1.298   2.703   3.934
 1230SOL     OW 3508   1.759   3.609   4.878
 1230SOL    HW1 3509   1.820   3.639   4.805
 1230SOL    HW2 3510   1.721   3.520   4.856
 1231SOL     OW 3511   1.252   3.593   4.852
 1231SOL    HW1 3512   1.336   3.598   4.798
 1231SOL    HW2 3513   1.229   3.497   4.870
 1232SOL     OW 3514   0.083   3.120   4.746
 1232SOL    HW1 3515   0.078   3.119   4.846
 1232SOL    HW2 3516   0.000   3.079   4.708
 1233SOL     OW 3517   1.726   1.997   4.247
 1233SOL    HW1 3518   1.799   1.980   4.180
 1233SOL    HW2 3519   1.695   1.910   4.285
 1234SOL     OW 3520   1.388   3.435   4.201
 1234SOL    HW1 3521   1.455   3.447   4.127
 1234SOL    HW2 3522   1.348   3.524   4.224
 1235SOL     OW 3523   1.280   2.789   4.396
 1235SOL    HW1 3524   1.340   2.708   4.398
 1235SOL    HW2 3525   1.320   2.858   4.336
 1236SOL     OW 3526   0.672   3.478   3.878
 1236SOL    HW1 3527   0.681   3.488   3.779
 1236SOL    HW2 3528   0.632   3.389   3.899
 1237SOL     OW 3529   1.650   3.582   5.118
 1237SOL    HW1 3530   1.703   3.592   5.034
 1237SOL    HW2 3531   1.623   3.672   5.152
 1238SOL     OW 3532   1.841   2.037   4.687
 1238SOL    HW1 3533   1.880   1.952   4.651
 1238SOL    HW2 3534   1.743   2.039   4.668
 1239SOL     OW 3535   0.263   2.188   4.444
 1239SOL    HW1 3536   0.184   2.239   4.410
 1239SOL    HW2 3537   0.254   2.173   4.542
 1240SOL     OW 3538   1.194   3.474   3.755
 1240SOL    HW1 3539   1.200   3.381   3.792
 1240SOL    HW2 3540   1.135   3.474   3.675
 1241SOL     OW 3541   0.822   2.864   5.096
 1241SOL    HW1 3542   0.862   2.863   5.004
 1241SOL    HW2 3543   0.832   2.956   5.136
 1242SOL     OW 3544   0.916   2.772   4.015
 1242SOL    HW1 3545   0.979   2.810   3.947
 1242SOL    HW2 3546   0.956   2.689   4.054
 1243SOL     OW 3547   1.504   3.469   3.768
 1243SOL    HW1 3548   1.412   3.506   3.775
 1243SOL    HW2 3549   1.542   3.489   3.678
 1244SOL     OW 3550   1.039   2.960   4.420
 1244SOL    HW1 3551   0.969   2.913   4.474
 1244SOL    HW2 3552   1.098   2.892   4.377
 1245SOL     OW 3553   1.014   2.098   4.695
 1245SOL    HW1 3554   1.006   2.062   4.602
 1245SOL    HW2 3555   1.012   2.022   4.760
 1246SOL     OW 3556   0.590   3.349   4.215
 1246SOL    HW1 3557   0.632   3.291   4.145
 1246SOL    HW2 3558   0.546   3.428   4.171
 1247SOL     OW 3559   1.709   2.247   5.105
 1247SOL    HW1 3560   1.782   2.316   5.109
 1247SOL    HW2 3561   1.737   2.172   5.046
 1248SOL     OW 3562   0.255   3.210   4.014
 1248SOL    HW1 3563   0.159   3.211   3.987
 1248SOL    HW2 3564   0.267   3.263   4.098
 1249SOL     OW 3565   0.075   2.207   3.757
 1249SOL    HW1 3566  -0.017   2.179   3.728
 1249SOL    HW2 3567   0.106   2.284   3.701
 1250SOL     OW 3568   0.072   2.028   4.042
 1250SOL    HW1 3569   0.055   2.111   3.988
 1250SOL    HW2 3570   0.162   1.991   4.020
 1251SOL     OW 3571   1.183   3.197   3.843
 1251SOL    HW1 3572   1.084   3.186   3.845
 1251SOL    HW2 3573   1.217   3.212   3.936
 1252SOL     OW 3574   1.493   3.629   4.683
 1252SOL    HW1 3575   1.526   3.693   4.614
 1252SOL    HW2 3576   1.559   3.623   4.758
 1253SOL     OW 3577   1.450   3.082   5.357
 1253SOL    HW1 3578   1.441   3.072   5.456
 1253SOL    HW2 3579   1.546   3.075   5.331
 1254SOL     OW 3580   1.674   2.745   4.978
 1254SOL    HW1 3581   1.647   2.656   4.941
 1254SOL    HW2 3582   1.675   2.813   4.905
 1255SOL     OW 3583   1.225   2.187   4.173
 1255SOL    HW1 3584   1.290   2.113   4.162
 1255SOL    HW2 3585   1.245   2.237   4.257
 1256SOL     OW 3586   0.594   2.607   4.376
 1256SOL    HW1 3587   0.644   2.692   4.357
 1256SOL    HW2 3588   0.506   2.609   4.328
 1257SOL     OW 3589   1.730   2.796   5.241
 1257SOL    HW1 3590   1.768   2.887   5.256
 1257SOL    HW2 3591   1.722   2.779   5.142
 1258SOL     OW 3592   0.859   3.236   3.740
 1258SOL    HW1 3593   0.813   3.251   3.828
 1258SOL    HW2 3594   0.903   3.321   3.710
 1259SOL     OW 3595   0.661   3.652   4.677
 1259SOL    HW1 3596   0.615   3.740   4.664
 1259SOL    HW2 3597   0.760   3.664   4.670
 1260SOL     OW 3598   0.859   2.818   4.585
 1260SOL    HW1 3599   0.913   2.749   4.633
 1260SOL    HW2 3600   0.827   2.887   4.651
 1261SOL     OW 3601   1.083   2.846   3.811
 1261SOL    HW1 3602   1.060   2.899   3.729
 1261SOL    HW2 3603   1.164   2.790   3.792
 1262SOL     OW 3604   1.861   3.431   4.575
 1262SOL    HW1 3605   1.790   3.419   4.505
 1262SOL    HW2 3606   1.862   3.352   4.635
 1263SOL     OW 3607   0.079   3.102   4.377
 1263SOL    HW1 3608   0.078   3.055   4.465
 1263SOL    HW2 3609   0.161   3.074   4.326
 1264SOL     OW 3610   1.824   2.054   4.951
 1264SOL    HW1 3611   1.820   1.964   4.995
 1264SOL    HW2 3612   1.827   2.043   4.852
 1265SOL     OW 3613   0.428   2.286   4.244
 1265SOL    HW1 3614   0.458   2.214   4.182
 1265SOL    HW2 3615   0.389   2.246   4.327
 1266SOL     OW 3616   1.705   3.349   4.828
 1266SOL    HW1 3617   1.612   3.324   4.801
 1266SOL    HW2 3618   1.731   3.299   4.910
 1267SOL     OW 3619   0.812   3.448   4.411
 1267SOL    HW1 3620   0.844   3.458   4.317
 1267SOL    HW2 3621   0.733   3.386   4.413
 1268SOL     OW 3622   1.424   2.076   4.836
 1268SOL    HW1 3623   1.476   2.011   4.891
 1268SOL    HW2 3624   1.375   2.139   4.897
 1269SOL     OW 3625   1.001   1.896   4.878
 1269SOL    HW1 3626   0.938   1.824   4.847
 1269SOL    HW2 3627   1.094   1.860   4.878
 1270SOL     OW 3628   0.770   3.192   4.025
 1270SOL    HW1 3629   0.724   3.105   4.042
 1270SOL    HW2 3630   0.861   3.189   4.066
 1271SOL     OW 3631   1.352   1.914   3.892
 1271SOL    HW1 3632   1.387   1.873   3.808
 1271SOL    HW2 3633   1.262   1.876   3.912
 1272SOL     OW 3634   1.300   2.315   4.415
 1272SOL    HW1 3635   1.241   2.395   4.419
 1272SOL    HW2 3636   1.315   2.280   4.508
 1273SOL     OW 3637   1.593   2.083   4.606
 1273SOL    HW1 3638   1.509   2.082   4.660
 1273SOL    HW2 3639   1.595   2.166   4.550
 1274SOL     OW 3640   0.039   2.939   4.024
 1274SOL    HW1 3641   0.138   2.928   4.015
 1274SOL    HW2 3642  -0.001   2.853   4.056
 1275SOL     OW 3643   0.875   3.508   4.061
 1275SOL    HW1 3644   0.798   3.473   4.007
 1275SOL    HW2 3645   0.843   3.579   4.123
 1276SOL     OW 3646   0.230   4.352   0.113
 1276SOL    HW1 3647   0.137   4.350   0.150
 1276SOL    HW2 3648   0.231   4.313   0.021
 1277SOL     OW 3649   0.225   3.999   0.996
 1277SOL    HW1 3650   0.260   3.982   1.088
 1277SOL    HW2 3651   0.137   3.954   0.984
 1278SOL     OW 3652   0.019   4.092   0.647
 1278SOL    HW1 3653  -0.063   4.135   0.686
 1278SOL    HW2 3654  -0.009   4.019   0.584
 1279SOL     OW 3655   0.569   4.999   1.165
 1279SOL    HW1 3656   0.476   4.992   1.128
 1279SOL    HW2 3657   0.580   5.088   1.209
 1280SOL     OW 3658   1.555   5.235   0.703
 1280SOL    HW1 3659   1.498   5.219   0.784
 1280SOL    HW2 3660   1.496   5.245   0.623
 1281SOL     OW 3661   1.135   4.427   0.717
 1281SOL    HW1 3662   1.192   4.505   0.692
 1281SOL    HW2 3663   1.075   4.453   0.793
 1282SOL     OW 3664   1.755   4.331   0.231
 1282SOL    HW1 3665   1.743   4.318   0.132
 1282SOL    HW2 3666   1.725   4.250   0.280
 1283SOL     OW 3667   0.768   4.868   1.023
 1283SOL    HW1 3668   0.690   4.885   1.083
 1283SOL    HW2 3669   0.802   4.955   0.987
 1284SOL     OW 3670   0.850   4.522   1.823
 1284SOL    HW1 3671   0.846   4.598   1.888
 1284SOL    HW2 3672   0.872   4.558   1.732
 1285SOL     OW 3673   0.685   4.736   0.665
 1285SOL    HW1 3674   0.754   4.720   0.735
 1285SOL    HW2 3675   0.612   4.793   0.703
 1286SOL     OW 3676   0.686   4.885   1.803
 1286SOL    HW1 3677   0.746   4.964   1.817
 1286SOL    HW2 3678   0.600   4.916   1.762
 1287SOL     OW 3679   0.335   5.159   1.061
 1287SOL    HW1 3680   0.257   5.128   1.008
 1287SOL    HW2 3681   0.393   5.217   1.004
 1288SOL     OW 3682   0.438   4.116   1.499
 1288SOL    HW1 3683   0.520   4.060   1.508
 1288SOL    HW2 3684   0.357   4.058   1.503
 1289SOL     OW 3685   1.603   4.171   0.737
 1289SOL    HW1 3686   1.529   4.217   0.687
 1289SOL    HW2 3687   1.654   4.239   0.790
 1290SOL     OW 3688   0.240   4.815   0.886
 1290SOL    HW1 3689   0.254   4.731   0.938
 1290SOL    HW2 3690   0.185   4.879   0.941
 1291SOL     OW 3691   0.606   4.688   0.123
 1291SOL    HW1 3692   0.613   4.772   0.069
 1291SOL    HW2 3693   0.652   4.701   0.211
 1292SOL     OW 3694   1.594   3.838   1.480
 1292SOL    HW1 3695   1.576   3.905   1.408
 1292SOL    HW2 3696   1.591   3.884   1.569
 1293SOL     OW 3697   0.122   4.367   0.563
 1293SOL    HW1 3698   0.077   4.279   0.580
 1293SOL    HW2 3699   0.121   4.421   0.647
 1294SOL     OW 3700   1.689   4.646   0.612
 1294SOL    HW1 3701   1.784   4.617   0.620
 1294SOL    HW2 3702   1.681   4.711   0.537
 1295SOL     OW 3703   1.641   4.832   0.432
 1295SOL    HW1 3704   1.727   4.834   0.380
 1295SOL    HW2 3705   1.655   4.879   0.520
 1296SOL     OW 3706   0.113   4.461   1.597
 1296SOL    HW1 3707   0.201   4.448   1.642
 1296SOL    HW2 3708   0.100   4.558   1.575
 1297SOL     OW 3709   1.293   4.952   1.423
 1297SOL    HW1 3710   1.330   4.879   1.365
 1297SOL    HW2 3711   1.345   4.957   1.508
 1298SOL     OW 3712   0.809   3.728   0.502
 1298SOL    HW1 3713   0.849   3.819   0.493
 1298SOL    HW2 3714   0.709   3.736   0.508
 1299SOL     OW 3715   0.197   4.700   1.264
 1299SOL    HW1 3716   0.286   4.655   1.250
 1299SOL    HW2 3717   0.124   4.635   1.245
 1300SOL     OW 3718   1.525   4.723   0.190
 1300SOL    HW1 3719   1.462   4.647   0.203
 1300SOL    HW2 3720   1.573   4.741   0.276
 1301SOL     OW 3721   0.317   3.975   1.801
 1301SOL    HW1 3722   0.388   4.046   1.807
 1301SOL    HW2 3723   0.229   4.014   1.829
 1302SOL     OW 3724   1.466   5.141   0.953
 1302SOL    HW1 3725   1.407   5.147   1.033
 1302SOL    HW2 3726   1.451   5.053   0.907
 1303SOL     OW 3727   0.598   4.453   0.270
 1303SOL    HW1 3728   0.622   4.522   0.202
 1303SOL    HW2 3729   0.520   4.486   0.324
 1304SOL     OW 3730   1.281   4.069   0.944
 1304SOL    HW1 3731   1.195   4.019   0.931
 1304SOL    HW2 3732   1.343   4.015   1.000
 1305SOL     OW 3733   0.807   4.329   1.465
 1305SOL    HW1 3734   0.760   4.326   1.554
 1305SOL    HW2 3735   0.756   4.274   1.399
 1306SOL     OW 3736   1.394   4.193   1.674
 1306SOL    HW1 3737   1.374   4.236   1.762
 1306SOL    HW2 3738   1.472   4.131   1.683
 1307SOL     OW 3739   0.973   4.614   1.572
 1307SOL    HW1 3740   1.019   4.530   1.543
 1307SOL    HW2 3741   0.917   4.648   1.497
 1308SOL     OW 3742   0.991   4.134   1.242
 1308SOL    HW1 3743   0.914   4.168   1.296
 1308SOL    HW2 3744   0.957   4.083   1.163
 1309SOL     OW 3745   1.041   4.425   0.429
 1309SOL    HW1 3746   1.067   4.421   0.525
 1309SOL    HW2 3747   0.956   4.374   0.415
 1310SOL     OW 3748   0.076   4.535   0.789
 1310SOL    HW1 3749   0.175   4.523   0.798
 1310SOL    HW2 3750   0.052   4.630   0.810
 1311SOL     OW 3751   0.865   4.072   0.195
 1311SOL    HW1 3752   0.924   4.135   0.146
 1311SOL    HW2 3753   0.884   3.978   0.166
 1312SOL     OW 3754   1.719   4.309   1.831
 1312SOL    HW1 3755   1.693   4.398   1.795
 1312SOL    HW2 3756   1.717   4.241   1.758
 1313SOL     OW 3757   1.362   4.868   0.545
 1313SOL    HW1 3758   1.445   4.839   0.497
 1313SOL    HW2 3759   1.313   4.935   0.489
 1314SOL     OW 3760   0.550   3.920   0.885
 1314SOL    HW1 3761   0.545   3.915   0.985
 1314SOL    HW2 3762   0.552   4.016   0.856
 1315SOL     OW 3763   1.795   4.790   0.873
 1315SOL    HW1 3764   1.733   4.775   0.797
 1315SOL    HW2 3765   1.743   4.801   0.958
 1316SOL     OW 3766   0.321   4.667   0.242
 1316SOL    HW1 3767   0.403   4.706   0.200
 1316SOL    HW2 3768   0.294   4.585   0.193
 1317SOL     OW 3769   1.458   4.459   0.728
 1317SOL    HW1 3770   1.453   4.394   0.803
 1317SOL    HW2 3771   1.538   4.518   0.741
 1318SOL     OW 3772   0.202   4.009   1.498
 1318SOL    HW1 3773   0.122   4.069   1.485
 1318SOL    HW2 3774   0.192   3.960   1.584
 1319SOL     OW 3775   1.632   5.101   0.081
 1319SOL    HW1 3776   1.600   5.195   0.071
 1319SOL    HW2 3777   1.556   5.038   0.069
 1320SOL     OW 3778   1.400   3.831   0.426
 1320SOL    HW1 3779   1.376   3.794   0.336
 1320SOL    HW2 3780   1.499   3.847   0.430
 1321SOL     OW 3781   0.382   4.424   0.480
 1321SOL    HW1 3782   0.427   4.334   0.477
 1321SOL    HW2 3783   0.288   4.413   0.513
 1322SOL     OW 3784   1.547   3.946   1.729
 1322SOL    HW1 3785   1.542   3.983   1.821
 1322SOL    HW2 3786   1.475   3.877   1.717
 1323SOL     OW 3787   0.781   3.988   1.749
 1323SOL    HW1 3788   0.848   3.927   1.792
 1323SOL    HW2 3789   0.708   4.007   1.814
 1324SOL     OW 3790   1.351   4.314   1.433
 1324SOL    HW1 3791   1.379   4.271   1.518
 1324SOL    HW2 3792   1.376   4.410   1.434
 1325SOL     OW 3793   0.803   5.126   0.924
 1325SOL    HW1 3794   0.893   5.140   0.882
 1325SOL    HW2 3795   0.732   5.128   0.853
 1326SOL     OW 3796   0.922   4.227   0.899
 1326SOL    HW1 3797   0.897   4.218   0.803
 1326SOL    HW2 3798   0.970   4.145   0.930
 1327SOL     OW 3799   0.539   3.788   0.512
 1327SOL    HW1 3800   0.458   3.789   0.570
 1327SOL    HW2 3801   0.542   3.871   0.457
 1328SOL     OW 3802   1.434   4.912   0.041
 1328SOL    HW1 3803   1.466   4.836   0.098
 1328SOL    HW2 3804   1.342   4.939   0.071
 1329SOL     OW 3805   0.297   3.759   0.171
 1329SOL    HW1 3806   0.346   3.843   0.150
 1329SOL    HW2 3807   0.359   3.694   0.216
 1330SOL     OW 3808   0.935   3.960   0.480
 1330SOL    HW1 3809   0.887   4.001   0.402
 1330SOL    HW2 3810   1.034   3.958   0.461
 1331SOL     OW 3811   1.076   4.407   1.464
 1331SOL    HW1 3812   0.996   4.346   1.467
 1331SOL    HW2 3813   1.157   4.354   1.440
 1332SOL     OW 3814   1.227   5.294   0.793
 1332SOL    HW1 3815   1.248   5.368   0.728
 1332SOL    HW2 3816   1.295   5.294   0.866
 1333SOL     OW 3817   0.459   4.876   0.741
 1333SOL    HW1 3818   0.388   4.849   0.806
 1333SOL    HW2 3819   0.433   4.848   0.648
 1334SOL     OW 3820   1.032   4.273   0.016
 1334SOL    HW1 3821   0.991   4.355  -0.023
 1334SOL    HW2 3822   1.096   4.299   0.089
 1335SOL     OW 3823   0.078   4.280   1.386
 1335SOL    HW1 3824   0.170   4.279   1.345
 1335SOL    HW2 3825   0.072   4.354   1.453
 1336SOL     OW 3826   0.561   3.946   1.147
 1336SOL    HW1 3827   0.599   3.862   1.184
 1336SOL    HW2 3828   0.473   3.965   1.191
 1337SOL     OW 3829   0.866   4.178   0.642
 1337SOL    HW1 3830   0.834   4.250   0.580
 1337SOL    HW2 3831   0.890   4.097   0.589
 1338SOL     OW 3832   1.017   3.763   0.753
 1338SOL    HW1 3833   0.945   3.768   0.684
 1338SOL    HW2 3834   0.993   3.694   0.822
 1339SOL     OW 3835   1.429   4.897   0.867
 1339SOL    HW1 3836   1.374   4.813   0.860
 1339SOL    HW2 3837   1.455   4.926   0.775
 1340SOL     OW 3838   1.466   4.314   0.992
 1340SOL    HW1 3839   1.436   4.219   0.999
 1340SOL    HW2 3840   1.539   4.330   1.058
 1341SOL     OW 3841   1.857   4.557   0.377
 1341SOL    HW1 3842   1.899   4.493   0.441
 1341SOL    HW2 3843   1.819   4.506   0.299
 1342SOL     OW 3844   1.664   5.004   0.657
 1342SOL    HW1 3845   1.763   5.012   0.671
 1342SOL    HW2 3846   1.619   5.088   0.688
 1343SOL     OW 3847   1.390   4.299   0.078
 1343SOL    HW1 3848   1.336   4.278   0.159
 1343SOL    HW2 3849   1.481   4.258   0.087
 1344SOL     OW 3850   0.527   3.980   0.328
 1344SOL    HW1 3851   0.554   3.921   0.253
 1344SOL    HW2 3852   0.527   4.075   0.297
 1345SOL     OW 3853   1.754   4.947   1.588
 1345SOL    HW1 3854   1.845   4.908   1.575
 1345SOL    HW2 3855   1.762   5.043   1.612
 1346SOL     OW 3856   1.638   4.823   1.079
 1346SOL    HW1 3857   1.643   4.904   1.138
 1346SOL    HW2 3858   1.552   4.825   1.028
 1347SOL     OW 3859   0.915   3.813   1.402
 1347SOL    HW1 3860   0.940   3.793   1.307
 1347SOL    HW2 3861   0.987   3.869   1.444
 1348SOL     OW 3862   0.980   4.840   1.719
 1348SOL    HW1 3863   0.881   4.846   1.729
 1348SOL    HW2 3864   1.003   4.760   1.663
 1349SOL     OW 3865   0.705   4.774   0.368
 1349SOL    HW1 3866   0.691   4.781   0.467
 1349SOL    HW2 3867   0.789   4.723   0.350
 1350SOL     OW 3868   0.410   4.537   1.251
 1350SOL    HW1 3869   0.496   4.549   1.301
 1350SOL    HW2 3870   0.368   4.450   1.278
 1351SOL     OW 3871   1.274   4.110   1.262
 1351SOL    HW1 3872   1.295   4.184   1.326
 1351SOL    HW2 3873   1.185   4.127   1.219
 1352SOL     OW 3874   0.367   4.824   0.501
 1352SOL    HW1 3875   0.360   4.907   0.445
 1352SOL    HW2 3876   0.371   4.744   0.441
 1353SOL     OW 3877   0.566   4.261   0.865
 1353SOL    HW1 3878   0.578   4.327   0.791
 1353SOL    HW2 3879   0.612   4.295   0.948
 1354SOL     OW 3880   1.582   4.363   0.472
 1354SOL    HW1 3881   1.551   4.424   0.545
 1354SOL    HW2 3882   1.632   4.415   0.403
 1355SOL     OW 3883   0.402   4.475   1.598
 1355SOL    HW1 3884   0.470   4.530   1.551
 1355SOL    HW2 3885   0.442   4.387   1.625
 1356SOL     OW 3886   1.587   4.503   1.670
 1356SOL    HW1 3887   1.495   4.541   1.665
 1356SOL    HW2 3888   1.647   4.550   1.605
 1357SOL     OW 3889   1.013   3.829   1.770
 1357SOL    HW1 3890   1.019   3.914   1.718
 1357SOL    HW2 3891   1.045   3.753   1.713
 1358SOL     OW 3892   0.504   3.774   1.740
 1358SOL    HW1 3893   0.462   3.717   1.670
 1358SOL    HW2 3894   0.438   3.843   1.772
 1359SOL     OW 3895   0.573   4.594   1.029
 1359SOL    HW1 3896   0.617   4.683   1.020
 1359SOL    HW2 3897   0.510   4.594   1.106
 1360SOL     OW 3898   1.360   4.586   1.045
 1360SOL    HW1 3899   1.285   4.586   0.979
 1360SOL    HW2 3900   1.397   4.494   1.054
 1361SOL     OW 3901   1.209   4.249   0.275
 1361SOL    HW1 3902   1.222   4.165   0.329
 1361SOL    HW2 3903   1.180   4.323   0.335
 1362SOL     OW 3904   0.307   3.937   1.231
 1362SOL    HW1 3905   0.284   3.974   1.321
 1362SOL    HW2 3906   0.277   3.842   1.225
 1363SOL     OW 3907   0.037   5.034   1.282
 1363SOL    HW1 3908   0.090   4.985   1.350
 1363SOL    HW2 3909   0.059   5.132   1.287
 1364SOL     OW 3910   0.732   4.358   1.064
 1364SOL    HW1 3911   0.791   4.332   0.988
 1364SOL    HW2 3912   0.704   4.454   1.053
 1365SOL     OW 3913   1.728   4.659   1.854
 1365SOL    HW1 3914   1.682   4.652   1.765
 1365SOL    HW2 3915   1.666   4.703   1.920
 1366SOL     OW 3916   0.307   3.787   0.618
 1366SOL    HW1 3917   0.296   3.881   0.651
 1366SOL    HW2 3918   0.302   3.724   0.695
 1367SOL     OW 3919   1.622   4.091   0.374
 1367SOL    HW1 3920   1.624   4.015   0.438
 1367SOL    HW2 3921   1.574   4.168   0.414
 1368SOL     OW 3922   1.023   4.490   0.966
 1368SOL    HW1 3923   1.038   4.511   1.062
 1368SOL    HW2 3924   0.993   4.395   0.957
 1369SOL     OW 3925   1.859   5.242   1.605
 1369SOL    HW1 3926   1.873   5.269   1.510
 1369SOL    HW2 3927   1.942   5.264   1.658
 1370SOL     OW 3928   0.350   4.622   1.804
 1370SOL    HW1 3929   0.426   4.666   1.852
 1370SOL    HW2 3930   0.385   4.575   1.722
 1371SOL     OW 3931   1.540   3.998   0.125
 1371SOL    HW1 3932   1.479   3.923   0.148
 1371SOL    HW2 3933   1.562   4.050   0.208
 1372SOL     OW 3934   1.303   4.562   0.042
 1372SOL    HW1 3935   1.337   4.469   0.057
 1372SOL    HW2 3936   1.321   4.589  -0.053
 1373SOL     OW 3937   0.319   4.534   0.949
 1373SOL    HW1 3938   0.412   4.570   0.954
 1373SOL    HW2 3939   0.313   4.449   1.001
 1374SOL     OW 3940   0.339   4.233   1.006
 1374SOL    HW1 3941   0.287   4.150   0.989
 1374SOL    HW2 3942   0.416   4.238   0.942
 1375SOL     OW 3943   1.138   4.104   1.678
 1375SOL    HW1 3944   1.093   4.167   1.742
 1375SOL    HW2 3945   1.231   4.135   1.661
 1376SOL     OW 3946   1.160   3.931   1.477
 1376SOL    HW1 3947   1.160   3.995   1.554
 1376SOL    HW2 3948   1.188   3.979   1.394
 1377SOL     OW 3949   0.008   5.050   0.200
 1377SOL    HW1 3950  -0.085   5.071   0.169
 1377SOL    HW2 3951   0.018   4.951   0.213
 1378SOL     OW 3952   1.002   4.520   1.238
 1378SOL    HW1 3953   1.043   4.488   1.324
 1378SOL    HW2 3954   0.906   4.493   1.235
 1379SOL     OW 3955   0.040   4.268   1.114
 1379SOL    HW1 3956   0.125   4.235   1.073
 1379SOL    HW2 3957   0.053   4.283   1.212
 1380SOL     OW 3958   0.189   4.244   1.722
 1380SOL    HW1 3959   0.248   4.204   1.652
 1380SOL    HW2 3960   0.131   4.315   1.681
 1381SOL     OW 3961   1.369   4.674   1.660
 1381SOL    HW1 3962   1.408   4.763   1.680
 1381SOL    HW2 3963   1.379   4.654   1.563
 1382SOL     OW 3964   0.815   4.296   0.325
 1382SOL    HW1 3965   0.822   4.207   0.279
 1382SOL    HW2 3966   0.721   4.330   0.317
 1383SOL     OW 3967   1.657   4.328   1.206
 1383SOL    HW1 3968   1.619   4.259   1.268
 1383SOL    HW2 3969   1.739   4.292   1.162
 1384SOL     OW 3970   0.671   4.188   1.269
 1384SOL    HW1 3971   0.637   4.099   1.239
 1384SOL    HW2 3972   0.697   4.242   1.189
 1385SOL     OW 3973   0.473   4.224   0.191
 1385SOL    HW1 3974   0.534   4.304   0.195
 1385SOL    HW2 3975   0.378   4.255   0.198
 1386SOL     OW 3976   0.159   4.861   1.466
 1386SOL    HW1 3977   0.181   4.800   1.542
 1386SOL    HW2 3978   0.169   4.812   1.380
 1387SOL     OW 3979   1.347   4.783   1.234
 1387SOL    HW1 3980   1.371   4.720   1.160
 1387SOL    HW2 3981   1.257   4.823   1.216
 1388SOL     OW 3982   1.302   4.579   0.309
 1388SOL    HW1 3983   1.216   4.548   0.351
 1388SOL    HW2 3984   1.298   4.565   0.210
 1389SOL     OW 3985   0.083   4.982   1.022
 1389SOL    HW1 3986   0.078   4.981   1.122
 1389SOL    HW2 3987   0.000   4.941   0.984
 1390SOL     OW 3988   0.903   3.810   0.133
 1390SOL    HW1 3989   0.954   3.811   0.047
 1390SOL    HW2 3990   0.959   3.768   0.204
 1391SOL     OW 3991   1.726   3.859   0.523
 1391SOL    HW1 3992   1.799   3.842   0.456
 1391SOL    HW2 3993   1.695   3.772   0.561
 1392SOL     OW 3994   1.280   4.651   0.672
 1392SOL    HW1 3995   1.340   4.570   0.674
 1392SOL    HW2 3996   1.320   4.720   0.612
 1393SOL     OW 3997   0.830   4.997   1.422
 1393SOL    HW1 3998   0.825   5.030   1.517
 1393SOL    HW2 3999   0.744   5.016   1.376
 1394SOL     OW 4000   1.841   3.899   0.963
 1394SOL    HW1 4001   1.880   3.814   0.927
 1394SOL    HW2 4002   1.743   3.901   0.944
 1395SOL     OW 4003   0.263   4.050   0.720
 1395SOL    HW1 4004   0.184   4.101   0.686
 1395SOL    HW2 4005   0.254   4.035   0.818
 1396SOL     OW 4006   0.822   4.726   1.372
 1396SOL    HW1 4007   0.862   4.725   1.280
 1396SOL    HW2 4008   0.832   4.818   1.412
 1397SOL     OW 4009   0.916   4.634   0.291
 1397SOL    HW1 4010   0.979   4.672   0.223
 1397SOL    HW2 4011   0.956   4.551   0.330
 1398SOL     OW 4012   0.372   5.012   1.490
 1398SOL    HW1 4013   0.359   5.105   1.456
 1398SOL    HW2 4014   0.288   4.960   1.477
 1399SOL     OW 4015   1.614   5.016   1.289
 1399SOL    HW1 4016   1.674   5.019   1.369
 1399SOL    HW2 4017   1.539   5.080   1.302
 1400SOL     OW 4018   1.039   4.822   0.696
 1400SOL    HW1 4019   0.969   4.775   0.750
 1400SOL    HW2 4020   1.098   4.754   0.653
 1401SOL     OW 4021   1.014   3.960   0.971
 1401SOL    HW1 4022   1.006   3.924   0.878
 1401SOL    HW2 4023   1.012   3.884   1.036
 1402SOL     OW 4024   1.709   4.109   1.381
 1402SOL    HW1 4025   1.782   4.178   1.385
 1402SOL    HW2 4026   1.737   4.034   1.322
 1403SOL     OW 4027   0.105   4.737   1.726
 1403SOL    HW1 4028   0.028   4.704   1.780
 1403SOL    HW2 4029   0.190   4.707   1.768
 1404SOL     OW 4030   0.672   3.927   1.489
 1404SOL    HW1 4031   0.762   3.911   1.449
 1404SOL    HW2 4032   0.680   3.932   1.588
 1405SOL     OW 4033   0.075   4.069   0.033
 1405SOL    HW1 4034  -0.017   4.041   0.004
 1405SOL    HW2 4035   0.106   4.146  -0.023
 1406SOL     OW 4036   1.440   4.580   1.398
 1406SOL    HW1 4037   1.383   4.632   1.335
 1406SOL    HW2 4038   1.536   4.592   1.374
 1407SOL     OW 4039   0.072   3.890   0.318
 1407SOL    HW1 4040   0.055   3.973   0.264
 1407SOL    HW2 4041   0.162   3.853   0.296
 1408SOL     OW 4042   0.613   4.566   1.431
 1408SOL    HW1 4043   0.669   4.647   1.414
 1408SOL    HW2 4044   0.672   4.486   1.434
 1409SOL     OW 4045   0.716   4.289   1.708
 1409SOL    HW1 4046   0.735   4.354   1.782
 1409SOL    HW2 4047   0.776   4.209   1.717
 1410SOL     OW 4048   1.450   4.944   1.633
 1410SOL    HW1 4049   1.441   4.934   1.732
 1410SOL    HW2 4050   1.546   4.937   1.607
 1411SOL     OW 4051   1.674   4.607   1.254
 1411SOL    HW1 4052   1.647   4.518   1.217
 1411SOL    HW2 4053   1.675   4.675   1.181
 1412SOL     OW 4054   1.225   4.049   0.449
 1412SOL    HW1 4055   1.290   3.975   0.438
 1412SOL    HW2 4056   1.245   4.099   0.533
 1413SOL     OW 4057   0.594   4.469   0.652
 1413SOL    HW1 4058   0.644   4.554   0.633
 1413SOL    HW2 4059   0.506   4.471   0.604
 1414SOL     OW 4060   1.777   4.066   1.642
 1414SOL    HW1 4061   1.760   4.097   1.548
 1414SOL    HW2 4062   1.693   4.029   1.680
 1415SOL     OW 4063   1.730   4.658   1.517
 1415SOL    HW1 4064   1.768   4.749   1.532
 1415SOL    HW2 4065   1.722   4.641   1.418
 1416SOL     OW 4066   0.859   4.680   0.861
 1416SOL    HW1 4067   0.913   4.611   0.909
 1416SOL    HW2 4068   0.827   4.749   0.927
 1417SOL     OW 4069   1.083   4.708   0.087
 1417SOL    HW1 4070   1.060   4.761   0.005
 1417SOL    HW2 4071   1.164   4.652   0.068
 1418SOL     OW 4072   0.079   4.964   0.653
 1418SOL    HW1 4073   0.078   4.917   0.741
 1418SOL    HW2 4074   0.161   4.936   0.602
 1419SOL     OW 4075   1.824   3.916   1.227
 1419SOL    HW1 4076   1.820   3.826   1.271
 1419SOL    HW2 4077   1.827   3.905   1.128
 1420SOL     OW 4078   0.428   4.148   0.520
 1420SOL    HW1 4079   0.458   4.076   0.458
 1420SOL    HW2 4080   0.389   4.108   0.603
 1421SOL     OW 4081   0.317   4.271   1.280
 1421SOL    HW1 4082   0.355   4.212   1.352
 1421SOL    HW2 4083   0.357   4.245   1.192
 1422SOL     OW 4084   1.424   3.938   1.112
 1422SOL    HW1 4085   1.476   3.873   1.167
 1422SOL    HW2 4086   1.375   4.001   1.173
 1423SOL     OW 4087   1.001   3.758   1.154
 1423SOL    HW1 4088   0.938   3.686   1.123
 1423SOL    HW2 4089   1.094   3.722   1.154
 1424SOL     OW 4090   0.770   5.054   0.301
 1424SOL    HW1 4091   0.724   4.967   0.318
 1424SOL    HW2 4092   0.861   5.051   0.342
 1425SOL     OW 4093   1.352   3.776   0.168
 1425SOL    HW1 4094   1.387   3.735   0.084
 1425SOL    HW2 4095   1.262   3.738   0.188
 1426SOL     OW 4096   1.300   4.177   0.691
 1426SOL    HW1 4097   1.241   4.257   0.695
 1426SOL    HW2 4098   1.315   4.142   0.784
 1427SOL     OW 4099   1.593   3.945   0.882
 1427SOL    HW1 4100   1.509   3.944   0.936
 1427SOL    HW2 4101   1.595   4.028   0.826
 1428SOL     OW 4102   0.039   4.801   0.300
 1428SOL    HW1 4103   0.138   4.790   0.291
 1428SOL    HW2 4104  -0.001   4.715   0.332
 1429SOL     OW 4105   0.230   4.352   1.975
 1429SOL    HW1 4106   0.137   4.350   2.012
 1429SOL    HW2 4107   0.231   4.313   1.883
 1430SOL     OW 4108   0.225   3.999   2.858
 1430SOL    HW1 4109   0.260   3.982   2.950
 1430SOL    HW2 4110   0.137   3.954   2.846
 1431SOL     OW 4111   0.019   4.092   2.509
 1431SOL    HW1 4112  -0.063   4.135   2.548
 1431SOL    HW2 4113  -0.009   4.019   2.446
 1432SOL     OW 4114   0.569   4.999   3.027
 1432SOL    HW1 4115   0.476   4.992   2.990
 1432SOL    HW2 4116   0.580   5.088   3.071
 1433SOL     OW 4117   1.555   5.235   2.565
 1433SOL    HW1 4118   1.498   5.219   2.646
 1433SOL    HW2 4119   1.496   5.245   2.485
 1434SOL     OW 4120   1.135   4.427   2.579
 1434SOL    HW1 4121   1.192   4.505   2.554
 1434SOL    HW2 4122   1.075   4.453   2.655
 1435SOL     OW 4123   1.755   4.331   2.093
 1435SOL    HW1 4124   1.743   4.318   1.994
 1435SOL    HW2 4125   1.725   4.250   2.142
 1436SOL     OW 4126   0.768   4.868   2.885
 1436SOL    HW1 4127   0.690   4.885   2.945
 1436SOL    HW2 4128   0.802   4.955   2.849
 1437SOL     OW 4129   0.850   4.522   3.685
 1437SOL    HW1 4130   0.846   4.598   3.750
 1437SOL    HW2 4131   0.872   4.558   3.594
 1438SOL     OW 4132   0.685   4.736   2.527
 1438SOL    HW1 4133   0.754   4.720   2.597
 1438SOL    HW2 4134   0.612   4.793   2.565
 1439SOL     OW 4135   0.686   4.885   3.665
 1439SOL    HW1 4136   0.746   4.964   3.679
 1439SOL    HW2 4137   0.600   4.916   3.624
 1440SOL     OW 4138   0.335   5.159   2.923
 1440SOL    HW1 4139   0.257   5.128   2.870
 1440SOL    HW2 4140   0.393   5.217   2.866
 1441SOL     OW 4141   0.438   4.116   3.361
 1441SOL    HW1 4142   0.520   4.060   3.370
 1441SOL    HW2 4143   0.357   4.058   3.365
 1442SOL     OW 4144   1.603   4.171   2.599
 1442SOL    HW1 4145   1.529   4.217   2.549
 1442SOL    HW2 4146   1.654   4.239   2.652
 1443SOL     OW 4147   0.240   4.815   2.748
 1443SOL    HW1 4148   0.254   4.731   2.800
 1443SOL    HW2 4149   0.185   4.879   2.803
 1444SOL     OW 4150   0.606   4.688   1.985
 1444SOL    HW1 4151   0.613   4.772   1.931
 1444SOL    HW2 4152   0.652   4.701   2.073
 1445SOL     OW 4153   1.594   3.838   3.342
 1445SOL    HW1 4154   1.576   3.905   3.270
 1445SOL    HW2 4155   1.591   3.884   3.431
 1446SOL     OW 4156   0.122   4.367   2.425
 1446SOL    HW1 4157   0.077   4.279   2.442
 1446SOL    HW2 4158   0.121   4.421   2.509
 1447SOL     OW 4159   1.689   4.646   2.474
 1447SOL    HW1 4160   1.784   4.617   2.482
 1447SOL    HW2 4161   1.681   4.711   2.399
 1448SOL     OW 4162   1.641   4.832   2.294
 1448SOL    HW1 4163   1.727   4.834   2.242
 1448SOL    HW2 4164   1.655   4.879   2.382
 1449SOL     OW 4165   0.113   4.461   3.459
 1449SOL    HW1 4166   0.201   4.448   3.504
 1449SOL    HW2 4167   0.100   4.558   3.437
 1450SOL     OW 4168   1.293   4.952   3.285
 1450SOL    HW1 4169   1.330   4.879   3.227
 1450SOL    HW2 4170   1.345   4.957   3.370
 1451SOL     OW 4171   0.809   3.728   2.364
 1451SOL    HW1 4172   0.849   3.819   2.355
 1451SOL    HW2 4173   0.709   3.736   2.370
 1452SOL     OW 4174   0.197   4.700   3.126
 1452SOL    HW1 4175   0.286   4.655   3.112
 1452SOL    HW2 4176   0.124   4.635   3.107
 1453SOL     OW 4177   1.525   4.723   2.052
 1453SOL    HW1 4178   1.462   4.647   2.065
 1453SOL    HW2 4179   1.573   4.741   2.138
 1454SOL     OW 4180   0.317   3.975   3.663
 1454SOL    HW1 4181   0.388   4.046   3.669
 1454SOL    HW2 4182   0.229   4.014   3.691
 1455SOL     OW 4183   1.466   5.141   2.815
 1455SOL    HW1 4184   1.407   5.147   2.895
 1455SOL    HW2 4185   1.451   5.053   2.769
 1456SOL     OW 4186   0.598   4.453   2.132
 1456SOL    HW1 4187   0.622   4.522   2.064
 1456SOL    HW2 4188   0.520   4.486   2.186
 1457SOL     OW 4189   1.281   4.069   2.806
 1457SOL    HW1 4190   1.195   4.019   2.793
 1457SOL    HW2 4191   1.343   4.015   2.862
 1458SOL     OW 4192   0.807   4.329   3.327
 1458SOL    HW1 4193   0.760   4.326   3.416
 1458SOL    HW2 4194   0.756   4.274   3.261
 1459SOL     OW 4195   1.394   4.193   3.536
 1459SOL    HW1 4196   1.374   4.236   3.624
 1459SOL    HW2 4197   1.472   4.131   3.545
 1460SOL     OW 4198   0.973   4.614   3.434
 1460SOL    HW1 4199   1.019   4.530   3.405
 1460SOL    HW2 4200   0.917   4.648   3.359
 1461SOL     OW 4201   0.991   4.134   3.104
 1461SOL    HW1 4202   0.914   4.168   3.158
 1461SOL    HW2 4203   0.957   4.083   3.025
 1462SOL     OW 4204   1.041   4.425   2.291
 1462SOL    HW1 4205   1.067   4.421   2.387
 1462SOL    HW2 4206   0.956   4.374   2.277
 1463SOL     OW 4207   0.076   4.535   2.651
 1463SOL    HW1 4208   0.175   4.523   2.660
 1463SOL    HW2 4209   0.052   4.630   2.672
 1464SOL     OW 4210   0.865   4.072   2.057
 1464SOL    HW1 4211   0.924   4.135   2.008
 1464SOL    HW2 4212   0.884   3.978   2.028
 1465SOL     OW 4213   1.719   4.309   3.693
 1465SOL    HW1 4214   1.693   4.398   3.657
 1465SOL    HW2 4215   1.717   4.241   3.620
 1466SOL     OW 4216   1.362   4.868   2.407
 1466SOL    HW1 4217   1.445   4.839   2.359
 1466SOL    HW2 4218   1.313   4.935   2.351
 1467SOL     OW 4219   0.550   3.920   2.747
 1467SOL    HW1 4220   0.545   3.915   2.847
 1467SOL    HW2 4221   0.552   4.016   2.718
 1468SOL     OW 4222   1.795   4.790   2.735
 1468SOL    HW1 4223   1.733   4.775   2.659
 1468SOL    HW2 4224   1.743   4.801   2.820
 1469SOL     OW 4225   0.321   4.667   2.104
 1469SOL    HW1 4226   0.403   4.706   2.062
 1469SOL    HW2 4227   0.294   4.585   2.055
 1470SOL     OW 4228   1.458   4.459   2.590
 1470SOL    HW1 4229   1.453   4.394   2.665
 1470SOL    HW2 4230   1.538   4.518   2.603
 1471SOL     OW 4231   0.202   4.009   3.360
 1471SOL    HW1 4232   0.122   4.069   3.347
 1471SOL    HW2 4233   0.192   3.960   3.446
 1472SOL     OW 4234   1.632   5.101   1.943
 1472SOL    HW1 4235   1.600   5.195   1.933
 1472SOL    HW2 4236   1.556   5.038   1.931
 1473SOL     OW 4237   1.400   3.831   2.288
 1473SOL    HW1 4238   1.376   3.794   2.198
 1473SOL    HW2 4239   1.499   3.847   2.292
 1474SOL     OW 4240   0.382   4.424   2.342
 1474SOL    HW1 4241   0.427   4.334   2.339
 1474SOL    HW2 4242   0.288   4.413   2.375
 1475SOL     OW 4243   1.547   3.946   3.591
 1475SOL    HW1 4244   1.542   3.983   3.683
 1475SOL    HW2 4245   1.475   3.877   3.579
 1476SOL     OW 4246   0.614   3.846   1.979
 1476SOL    HW1 4247   0.712   3.824   1.986
 1476SOL    HW2 4248   0.583   3.829   1.886
 1477SOL     OW 4249   0.781   3.988   3.611
 1477SOL    HW1 4250   0.848   3.927   3.654
 1477SOL    HW2 4251   0.708   4.007   3.676
 1478SOL     OW 4252   1.351   4.314   3.295
 1478SOL    HW1 4253   1.379   4.271   3.380
 1478SOL    HW2 4254   1.376   4.410   3.296
 1479SOL     OW 4255   0.803   5.126   2.786
 1479SOL    HW1 4256   0.893   5.140   2.744
 1479SOL    HW2 4257   0.732   5.128   2.715
 1480SOL     OW 4258   0.922   4.227   2.761
 1480SOL    HW1 4259   0.897   4.218   2.665
 1480SOL    HW2 4260   0.970   4.145   2.792
 1481SOL     OW 4261   0.539   3.788   2.374
 1481SOL    HW1 4262   0.458   3.789   2.432
 1481SOL    HW2 4263   0.542   3.871   2.319
 1482SOL     OW 4264   1.434   4.912   1.903
 1482SOL    HW1 4265   1.466   4.836   1.960
 1482SOL    HW2 4266   1.342   4.939   1.933
 1483SOL     OW 4267   0.297   3.759   2.033
 1483SOL    HW1 4268   0.346   3.843   2.012
 1483SOL    HW2 4269   0.359   3.694   2.078
 1484SOL     OW 4270   0.935   3.960   2.342
 1484SOL    HW1 4271   0.887   4.001   2.264
 1484SOL    HW2 4272   1.034   3.958   2.323
 1485SOL     OW 4273   1.076   4.407   3.326
 1485SOL    HW1 4274   0.996   4.346   3.329
 1485SOL    HW2 4275   1.157   4.354   3.302
 1486SOL     OW 4276   1.227   5.294   2.655
 1486SOL    HW1 4277   1.248   5.368   2.590
 1486SOL    HW2 4278   1.295   5.294   2.728
 1487SOL     OW 4279   0.459   4.876   2.603
 1487SOL    HW1 4280   0.388   4.849   2.668
 1487SOL    HW2 4281   0.433   4.848   2.510
 1488SOL     OW 4282   1.032   4.273   1.878
 1488SOL    HW1 4283   0.991   4.355   1.839
 1488SOL    HW2 4284   1.096   4.299   1.951
 1489SOL     OW 4285   0.078   4.280   3.248
 1489SOL    HW1 4286   0.170   4.279   3.207
 1489SOL    HW2 4287   0.072   4.354   3.315
 1490SOL     OW 4288   0.561   3.946   3.009
 1490SOL    HW1 4289   0.599   3.862   3.046
 1490SOL    HW2 4290   0.473   3.965   3.053
 1491SOL     OW 4291   0.866   4.178   2.504
 1491SOL    HW1 4292   0.834   4.250   2.442
 1491SOL    HW2 4293   0.890   4.097   2.451
 1492SOL     OW 4294   1.017   3.763   2.615
 1492SOL    HW1 4295   0.945   3.768   2.546
 1492SOL    HW2 4296   0.993   3.694   2.684
 1493SOL     OW 4297   1.429   4.897   2.729
 1493SOL    HW1 4298   1.374   4.813   2.722
 1493SOL    HW2 4299   1.455   4.926   2.637
 1494SOL     OW 4300   1.466   4.314   2.854
 1494SOL    HW1 4301   1.436   4.219   2.861
 1494SOL    HW2 4302   1.539   4.330   2.920
 1495SOL     OW 4303   1.857   4.557   2.239
 1495SOL    HW1 4304   1.899   4.493   2.303
 1495SOL    HW2 4305   1.819   4.506   2.161
 1496SOL     OW 4306   1.664   5.004   2.519
 1496SOL    HW1 4307   1.763   5.012   2.533
 1496SOL    HW2 4308   1.619   5.088   2.550
 1497SOL     OW 4309   1.390   4.299   1.940
 1497SOL    HW1 4310   1.336   4.278   2.021
 1497SOL    HW2 4311   1.481   4.258   1.949
 1498SOL     OW 4312   0.527   3.980   2.190
 1498SOL    HW1 4313   0.554   3.921   2.115
 1498SOL    HW2 4314   0.527   4.075   2.159
 1499SOL     OW 4315   1.754   4.947   3.450
 1499SOL    HW1 4316   1.845   4.908   3.437
 1499SOL    HW2 4317   1.762   5.043   3.474
 1500SOL     OW 4318   1.638   4.823   2.941
 1500SOL    HW1 4319   1.643   4.904   3.000
 1500SOL    HW2 4320   1.552   4.825   2.890
 1501SOL     OW 4321   0.915   3.813   3.264
 1501SOL    HW1 4322   0.940   3.793   3.169
 1501SOL    HW2 4323   0.987   3.869   3.306
 1502SOL     OW 4324   0.980   4.840   3.581
 1502SOL    HW1 4325   0.881   4.846   3.591
 1502SOL    HW2 4326   1.003   4.760   3.525
 1503SOL     OW 4327   0.705   4.774   2.230
 1503SOL    HW1 4328   0.691   4.781   2.329
 1503SOL    HW2 4329   0.789   4.723   2.212
 1504SOL     OW 4330   0.410   4.537   3.113
 1504SOL    HW1 4331   0.496   4.549   3.163
 1504SOL    HW2 4332   0.368   4.450   3.140
 1505SOL     OW 4333   1.274   4.110   3.124
 1505SOL    HW1 4334   1.295   4.184   3.188
 1505SOL    HW2 4335   1.185   4.127   3.081
 1506SOL     OW 4336   0.367   4.824   2.363
 1506SOL    HW1 4337   0.360   4.907   2.307
 1506SOL    HW2 4338   0.371   4.744   2.303
 1507SOL     OW 4339   0.566   4.261   2.727
 1507SOL    HW1 4340   0.578   4.327   2.653
 1507SOL    HW2 4341   0.612   4.295   2.810
 1508SOL     OW 4342   1.582   4.363   2.334
 1508SOL    HW1 4343   1.551   4.424   2.407
 1508SOL    HW2 4344   1.632   4.415   2.265
 1509SOL     OW 4345   0.402   4.475   3.460
 1509SOL    HW1 4346   0.470   4.530   3.413
 1509SOL    HW2 4347   0.442   4.387   3.487
 1510SOL     OW 4348   1.587   4.503   3.532
 1510SOL    HW1 4349   1.495   4.541   3.527
 1510SOL    HW2 4350   1.647   4.550   3.467
 1511SOL     OW 4351   1.013   3.829   3.632
 1511SOL    HW1 4352   1.019   3.914   3.580
 1511SOL    HW2 4353   1.045   3.753   3.575
 1512SOL     OW 4354   0.504   3.774   3.602
 1512SOL    HW1 4355   0.462   3.717   3.532
 1512SOL    HW2 4356   0.438   3.843   3.634
 1513SOL     OW 4357   0.573   4.594   2.891
 1513SOL    HW1 4358   0.617   4.683   2.882
 1513SOL    HW2 4359   0.510   4.594   2.968
 1514SOL     OW 4360   1.360   4.586   2.907
 1514SOL    HW1 4361   1.285   4.586   2.841
 1514SOL    HW2 4362   1.397   4.494   2.916
 1515SOL     OW 4363   1.209   4.249   2.137
 1515SOL    HW1 4364   1.222   4.165   2.191
 1515SOL    HW2 4365   1.180   4.323   2.197
 1516SOL     OW 4366   0.307   3.937   3.093
 1516SOL    HW1 4367   0.284   3.974   3.183
 1516SOL    HW2 4368   0.277   3.842   3.087
 1517SOL     OW 4369   0.037   5.034   3.144
 1517SOL    HW1 4370   0.090   4.985   3.212
 1517SOL    HW2 4371   0.059   5.132   3.149
 1518SOL     OW 4372   0.732   4.358   2.926
 1518SOL    HW1 4373   0.791   4.332   2.850
 1518SOL    HW2 4374   0.704   4.454   2.915
 1519SOL     OW 4375   1.728   4.659   3.716
 1519SOL    HW1 4376   1.682   4.652   3.627
 1519SOL    HW2 4377   1.666   4.703   3.782
 1520SOL     OW 4378   0.307   3.787   2.480
 1520SOL    HW1 4379   0.296   3.881   2.513
 1520SOL    HW2 4380   0.302   3.724   2.557
 1521SOL     OW 4381   1.622   4.091   2.236
 1521SOL    HW1 4382   1.624   4.015   2.300
 1521SOL    HW2 4383   1.574   4.168   2.276
 1522SOL     OW 4384   1.023   4.490   2.828
 1522SOL    HW1 4385   1.038   4.511   2.924
 1522SOL    HW2 4386   0.993   4.395   2.819
 1523SOL     OW 4387   1.859   5.242   3.467
 1523SOL    HW1 4388   1.873   5.269   3.372
 1523SOL    HW2 4389   1.942   5.264   3.520
 1524SOL     OW 4390   0.350   4.622   3.666
 1524SOL    HW1 4391   0.426   4.666   3.714
 1524SOL    HW2 4392   0.385   4.575   3.584
 1525SOL     OW 4393   1.540   3.998   1.987
 1525SOL    HW1 4394   1.479   3.923   2.010
 1525SOL    HW2 4395   1.562   4.050   2.070
 1526SOL     OW 4396   1.303   4.562   1.904
 1526SOL    HW1 4397   1.337   4.469   1.919
 1526SOL    HW2 4398   1.321   4.589   1.809
 1527SOL     OW 4399   0.319   4.534   2.811
 1527SOL    HW1 4400   0.412   4.570   2.816
 1527SOL    HW2 4401   0.313   4.449   2.863
 1528SOL     OW 4402   0.339   4.233   2.868
 1528SOL    HW1 4403   0.287   4.150   2.851
 1528SOL    HW2 4404   0.416   4.238   2.804
 1529SOL     OW 4405   1.138   4.104   3.540
 1529SOL    HW1 4406   1.093   4.167   3.604
 1529SOL    HW2 4407   1.231   4.135   3.523
 1530SOL     OW 4408   1.160   3.931   3.339
 1530SOL    HW1 4409   1.160   3.995   3.416
 1530SOL    HW2 4410   1.188   3.979   3.256
 1531SOL     OW 4411   0.008   5.050   2.062
 1531SOL    HW1 4412  -0.085   5.071   2.031
 1531SOL    HW2 4413   0.018   4.951   2.075
 1532SOL     OW 4414   1.002   4.520   3.100
 1532SOL    HW1 4415   1.043   4.488   3.186
 1532SOL    HW2 4416   0.906   4.493   3.097
 1533SOL     OW 4417   0.040   4.268   2.976
 1533SOL    HW1 4418   0.125   4.235   2.935
 1533SOL    HW2 4419   0.053   4.283   3.074
 1534SOL     OW 4420   0.189   4.244   3.584
 1534SOL    HW1 4421   0.248   4.204   3.514
 1534SOL    HW2 4422   0.131   4.315   3.543
 1535SOL     OW 4423   1.369   4.674   3.522
 1535SOL    HW1 4424   1.408   4.763   3.542
 1535SOL    HW2 4425   1.379   4.654   3.425
 1536SOL     OW 4426   0.815   4.296   2.187
 1536SOL    HW1 4427   0.822   4.207   2.141
 1536SOL    HW2 4428   0.721   4.330   2.179
 1537SOL     OW 4429   1.657   4.328   3.068
 1537SOL    HW1 4430   1.619   4.259   3.130
 1537SOL    HW2 4431   1.739   4.292   3.024
 1538SOL     OW 4432   0.671   4.188   3.131
 1538SOL    HW1 4433   0.637   4.099   3.101
 1538SOL    HW2 4434   0.697   4.242   3.051
 1539SOL     OW 4435   0.473   4.224   2.053
 1539SOL    HW1 4436   0.534   4.304   2.057
 1539SOL    HW2 4437   0.378   4.255   2.060
 1540SOL     OW 4438   0.159   4.861   3.328
 1540SOL    HW1 4439   0.181   4.800   3.404
 1540SOL    HW2 4440   0.169   4.812   3.242
 1541SOL     OW 4441   1.347   4.783   3.096
 1541SOL    HW1 4442   1.371   4.720   3.022
 1541SOL    HW2 4443   1.257   4.823   3.078
 1542SOL     OW 4444   1.302   4.579   2.171
 1542SOL    HW1 4445   1.216   4.548   2.213
 1542SOL    HW2 4446   1.298   4.565   2.072
 1543SOL     OW 4447   0.083   4.982   2.884
 1543SOL    HW1 4448   0.078   4.981   2.984
 1543SOL    HW2 4449   0.000   4.941   2.846
 1544SOL     OW 4450   1.726   3.859   2.385
 1544SOL    HW1 4451   1.799   3.842   2.318
 1544SOL    HW2 4452   1.695   3.772   2.423
 1545SOL     OW 4453   1.280   4.651   2.534
 1545SOL    HW1 4454   1.340   4.570   2.536
 1545SOL    HW2 4455   1.320   4.720   2.474
 1546SOL     OW 4456   0.830   4.997   3.284
 1546SOL    HW1 4457   0.825   5.030   3.379
 1546SOL    HW2 4458   0.744   5.016   3.238
 1547SOL     OW 4459   1.841   3.899   2.825
 1547SOL    HW1 4460   1.880   3.814   2.789
 1547SOL    HW2 4461   1.743   3.901   2.806
 1548SOL     OW 4462   0.263   4.050   2.582
 1548SOL    HW1 4463   0.184   4.101   2.548
 1548SOL    HW2 4464   0.254   4.035   2.680
 1549SOL     OW 4465   1.194   5.336   1.893
 1549SOL    HW1 4466   1.200   5.243   1.930
 1549SOL    HW2 4467   1.135   5.336   1.813
 1550SOL     OW 4468   0.822   4.726   3.234
 1550SOL    HW1 4469   0.862   4.725   3.142
 1550SOL    HW2 4470   0.832   4.818   3.274
 1551SOL     OW 4471   0.916   4.634   2.153
 1551SOL    HW1 4472   0.979   4.672   2.085
 1551SOL    HW2 4473   0.956   4.551   2.192
 1552SOL     OW 4474   0.372   5.012   3.352
 1552SOL    HW1 4475   0.359   5.105   3.318
 1552SOL    HW2 4476   0.288   4.960   3.339
 1553SOL     OW 4477   1.614   5.016   3.151
 1553SOL    HW1 4478   1.674   5.019   3.231
 1553SOL    HW2 4479   1.539   5.080   3.164
 1554SOL     OW 4480   1.039   4.822   2.558
 1554SOL    HW1 4481   0.969   4.775   2.612
 1554SOL    HW2 4482   1.098   4.754   2.515
 1555SOL     OW 4483   1.014   3.960   2.833
 1555SOL    HW1 4484   1.006   3.924   2.740
 1555SOL    HW2 4485   1.012   3.884   2.898
 1556SOL     OW 4486   1.709   4.109   3.243
 1556SOL    HW1 4487   1.782   4.178   3.247
 1556SOL    HW2 4488   1.737   4.034   3.184
 1557SOL     OW 4489   0.105   4.737   3.588
 1557SOL    HW1 4490   0.028   4.704   3.642
 1557SOL    HW2 4491   0.190   4.707   3.630
 1558SOL     OW 4492   0.672   3.927   3.351
 1558SOL    HW1 4493   0.762   3.911   3.311
 1558SOL    HW2 4494   0.680   3.932   3.450
 1559SOL     OW 4495   0.075   4.069   1.895
 1559SOL    HW1 4496  -0.017   4.041   1.866
 1559SOL    HW2 4497   0.106   4.146   1.839
 1560SOL     OW 4498   1.440   4.580   3.260
 1560SOL    HW1 4499   1.383   4.632   3.197
 1560SOL    HW2 4500   1.536   4.592   3.236
 1561SOL     OW 4501   0.072   3.890   2.180
 1561SOL    HW1 4502   0.055   3.973   2.126
 1561SOL    HW2 4503   0.162   3.853   2.158
 1562SOL     OW 4504   0.613   4.566   3.293
 1562SOL    HW1 4505   0.669   4.647   3.276
 1562SOL    HW2 4506   0.672   4.486   3.296
 1563SOL     OW 4507   0.716   4.289   3.570
 1563SOL    HW1 4508   0.735   4.354   3.644
 1563SOL    HW2 4509   0.776   4.209   3.579
 1564SOL     OW 4510   1.450   4.944   3.495
 1564SOL    HW1 4511   1.441   4.934   3.594
 1564SOL    HW2 4512   1.546   4.937   3.469
 1565SOL     OW 4513   1.674   4.607   3.116
 1565SOL    HW1 4514   1.647   4.518   3.079
 1565SOL    HW2 4515   1.675   4.675   3.043
 1566SOL     OW 4516   1.225   4.049   2.311
 1566SOL    HW1 4517   1.290   3.975   2.300
 1566SOL    HW2 4518   1.245   4.099   2.395
 1567SOL     OW 4519   0.594   4.469   2.514
 1567SOL    HW1 4520   0.644   4.554   2.495
 1567SOL    HW2 4521   0.506   4.471   2.466
 1568SOL     OW 4522   1.777   4.066   3.504
 1568SOL    HW1 4523   1.760   4.097   3.410
 1568SOL    HW2 4524   1.693   4.029   3.542
 1569SOL     OW 4525   1.730   4.658   3.379
 1569SOL    HW1 4526   1.768   4.749   3.394
 1569SOL    HW2 4527   1.722   4.641   3.280
 1570SOL     OW 4528   0.859   4.680   2.723
 1570SOL    HW1 4529   0.913   4.611   2.771
 1570SOL    HW2 4530   0.827   4.749   2.789
 1571SOL     OW 4531   1.083   4.708   1.949
 1571SOL    HW1 4532   1.060   4.761   1.867
 1571SOL    HW2 4533   1.164   4.652   1.930
 1572SOL     OW 4534   0.079   4.964   2.515
 1572SOL    HW1 4535   0.078   4.917   2.603
 1572SOL    HW2 4536   0.161   4.936   2.464
 1573SOL     OW 4537   1.824   3.916   3.089
 1573SOL    HW1 4538   1.820   3.826   3.133
 1573SOL    HW2 4539   1.827   3.905   2.990
 1574SOL     OW 4540   0.428   4.148   2.382
 1574SOL    HW1 4541   0.458   4.076   2.320
 1574SOL    HW2 4542   0.389   4.108   2.465
 1575SOL     OW 4543   0.317   4.271   3.142
 1575SOL    HW1 4544   0.355   4.212   3.214
 1575SOL    HW2 4545   0.357   4.245   3.054
 1576SOL     OW 4546   1.424   3.938   2.974
 1576SOL    HW1 4547   1.476   3.873   3.029
 1576SOL    HW2 4548   1.375   4.001   3.035
 1577SOL     OW 4549   1.001   3.758   3.016
 1577SOL    HW1 4550   0.938   3.686   2.985
 1577SOL    HW2 4551   1.094   3.722   3.016
 1578SOL     OW 4552   0.770   5.054   2.163
 1578SOL    HW1 4553   0.724   4.967   2.180
 1578SOL    HW2 4554   0.861   5.051   2.204
 1579SOL     OW 4555   1.352   3.776   2.030
 1579SOL    HW1 4556   1.387   3.735   1.946
 1579SOL    HW2 4557   1.262   3.738   2.050
 1580SOL     OW 4558   1.300   4.177   2.553
 1580SOL    HW1 4559   1.241   4.257   2.557
 1580SOL    HW2 4560   1.315   4.142   2.646
 1581SOL     OW 4561   1.593   3.945   2.744
 1581SOL    HW1 4562   1.509   3.944   2.798
 1581SOL    HW2 4563   1.595   4.028   2.688
 1582SOL     OW 4564   0.039   4.801   2.162
 1582SOL    HW1 4565   0.138   4.790   2.153
 1582SOL    HW2 4566  -0.001   4.715   2.194
 1583SOL     OW 4567   0.230   4.352   3.837
 1583SOL    HW1 4568   0.137   4.350   3.874
 1583SOL    HW2 4569   0.231   4.313   3.745
 1584SOL     OW 4570   0.225   3.999   4.720
 1584SOL    HW1 4571   0.260   3.982   4.812
 1584SOL    HW2 4572   0.137   3.954   4.708
 1585SOL     OW 4573   0.019   4.092   4.371
 1585SOL    HW1 4574  -0.063   4.135   4.410
 1585SOL    HW2 4575  -0.009   4.019   4.308
 1586SOL     OW 4576   0.569   4.999   4.889
 1586SOL    HW1 4577   0.476   4.992   4.852
 1586SOL    HW2 4578   0.580   5.088   4.933
 1587SOL     OW 4579   1.555   5.235   4.427
 1587SOL    HW1 4580   1.498   5.219   4.508
 1587SOL    HW2 4581   1.496   5.245   4.347
 1588SOL     OW 4582   1.135   4.427   4.441
 1588SOL    HW1 4583   1.192   4.505   4.416
 1588SOL    HW2 4584   1.075   4.453   4.517
 1589SOL     OW 4585   1.755   4.331   3.955
 1589SOL    HW1 4586   1.743   4.318   3.856
 1589SOL    HW2 4587   1.725   4.250   4.004
 1590SOL     OW 4588   0.768   4.868   4.747
 1590SOL    HW1 4589   0.690   4.885   4.807
 1590SOL    HW2 4590   0.802   4.955   4.711
 1591SOL     OW 4591   0.685   4.736   4.389
 1591SOL    HW1 4592   0.754   4.720   4.459
 1591SOL    HW2 4593   0.612   4.793   4.427
 1592SOL     OW 4594   0.335   5.159   4.785
 1592SOL    HW1 4595   0.257   5.128   4.732
 1592SOL    HW2 4596   0.393   5.217   4.728
 1593SOL     OW 4597   1.603   4.171   4.461
 1593SOL    HW1 4598   1.529   4.217   4.411
 1593SOL    HW2 4599   1.654   4.239   4.514
 1594SOL     OW 4600   0.240   4.815   4.610
 1594SOL    HW1 4601   0.254   4.731   4.662
 1594SOL    HW2 4602   0.185   4.879   4.665
 1595SOL     OW 4603   0.606   4.688   3.847
 1595SOL    HW1 4604   0.613   4.772   3.793
 1595SOL    HW2 4605   0.652   4.701   3.935
 1596SOL     OW 4606   0.122   4.367   4.287
 1596SOL    HW1 4607   0.077   4.279   4.304
 1596SOL    HW2 4608   0.121   4.421   4.371
 1597SOL     OW 4609   1.689   4.646   4.336
 1597SOL    HW1 4610   1.784   4.617   4.344
 1597SOL    HW2 4611   1.681   4.711   4.261
 1598SOL     OW 4612   1.641   4.832   4.156
 1598SOL    HW1 4613   1.727   4.834   4.104
 1598SOL    HW2 4614   1.655   4.879   4.244
 1599SOL     OW 4615   0.809   3.728   4.226
 1599SOL    HW1 4616   0.849   3.819   4.217
 1599SOL    HW2 4617   0.709   3.736   4.232
 1600SOL     OW 4618   0.197   4.700   4.988
 1600SOL    HW1 4619   0.286   4.655   4.974
 1600SOL    HW2 4620   0.124   4.635   4.969
 1601SOL     OW 4621   1.525   4.723   3.914
 1601SOL    HW1 4622   1.462   4.647   3.927
 1601SOL    HW2 4623   1.573   4.741   4.000
 1602SOL     OW 4624   1.466   5.141   4.677
 1602SOL    HW1 4625   1.407   5.147   4.757
 1602SOL    HW2 4626   1.451   5.053   4.631
 1603SOL     OW 4627   0.598   4.453   3.994
 1603SOL    HW1 4628   0.622   4.522   3.926
 1603SOL    HW2 4629   0.520   4.486   4.048
 1604SOL     OW 4630   1.281   4.069   4.668
 1604SOL    HW1 4631   1.195   4.019   4.655
 1604SOL    HW2 4632   1.343   4.015   4.724
 1605SOL     OW 4633   0.991   4.134   4.966
 1605SOL    HW1 4634   0.914   4.168   5.020
 1605SOL    HW2 4635   0.957   4.083   4.887
 1606SOL     OW 4636   1.041   4.425   4.153
 1606SOL    HW1 4637   1.067   4.421   4.249
 1606SOL    HW2 4638   0.956   4.374   4.139
 1607SOL     OW 4639   0.076   4.535   4.513
 1607SOL    HW1 4640   0.175   4.523   4.522
 1607SOL    HW2 4641   0.052   4.630   4.534
 1608SOL     OW 4642   0.865   4.072   3.919
 1608SOL    HW1 4643   0.924   4.135   3.870
 1608SOL    HW2 4644   0.884   3.978   3.890
 1609SOL     OW 4645   1.362   4.868   4.269
 1609SOL    HW1 4646   1.445   4.839   4.221
 1609SOL    HW2 4647   1.313   4.935   4.213
 1610SOL     OW 4648   0.550   3.920   4.609
 1610SOL    HW1 4649   0.545   3.915   4.709
 1610SOL    HW2 4650   0.552   4.016   4.580
 1611SOL     OW 4651   1.795   4.790   4.597
 1611SOL    HW1 4652   1.733   4.775   4.521
 1611SOL    HW2 4653   1.743   4.801   4.682
 1612SOL     OW 4654   0.321   4.667   3.966
 1612SOL    HW1 4655   0.403   4.706   3.924
 1612SOL    HW2 4656   0.294   4.585   3.917
 1613SOL     OW 4657   1.458   4.459   4.452
 1613SOL    HW1 4658   1.453   4.394   4.527
 1613SOL    HW2 4659   1.538   4.518   4.465
 1614SOL     OW 4660   1.632   5.101   3.805
 1614SOL    HW1 4661   1.600   5.195   3.795
 1614SOL    HW2 4662   1.556   5.038   3.793
 1615SOL     OW 4663   1.400   3.831   4.150
 1615SOL    HW1 4664   1.376   3.794   4.060
 1615SOL    HW2 4665   1.499   3.847   4.154
 1616SOL     OW 4666   0.382   4.424   4.204
 1616SOL    HW1 4667   0.427   4.334   4.201
 1616SOL    HW2 4668   0.288   4.413   4.237
 1617SOL     OW 4669   0.614   3.846   3.841
 1617SOL    HW1 4670   0.712   3.824   3.848
 1617SOL    HW2 4671   0.583   3.829   3.748
 1618SOL     OW 4672   0.803   5.126   4.648
 1618SOL    HW1 4673   0.893   5.140   4.606
 1618SOL    HW2 4674   0.732   5.128   4.577
 1619SOL     OW 4675   0.922   4.227   4.623
 1619SOL    HW1 4676   0.897   4.218   4.527
 1619SOL    HW2 4677   0.970   4.145   4.654
 1620SOL     OW 4678   0.539   3.788   4.236
 1620SOL    HW1 4679   0.458   3.789   4.294
 1620SOL    HW2 4680   0.542   3.871   4.181
 1621SOL     OW 4681   1.434   4.912   3.765
 1621SOL    HW1 4682   1.466   4.836   3.822
 1621SOL    HW2 4683   1.342   4.939   3.795
 1622SOL     OW 4684   0.297   3.759   3.895
 1622SOL    HW1 4685   0.346   3.843   3.874
 1622SOL    HW2 4686   0.359   3.694   3.940
 1623SOL     OW 4687   0.935   3.960   4.204
 1623SOL    HW1 4688   0.887   4.001   4.126
 1623SOL    HW2 4689   1.034   3.958   4.185
 1624SOL     OW 4690   1.227   5.294   4.517
 1624SOL    HW1 4691   1.248   5.368   4.452
 1624SOL    HW2 4692   1.295   5.294   4.590
 1625SOL     OW 4693   0.459   4.876   4.465
 1625SOL    HW1 4694   0.388   4.849   4.530
 1625SOL    HW2 4695   0.433   4.848   4.372
 1626SOL     OW 4696   1.032   4.273   3.740
 1626SOL    HW1 4697   0.991   4.355   3.701
 1626SOL    HW2 4698   1.096   4.299   3.813
 1627SOL     OW 4699   0.561   3.946   4.871
 1627SOL    HW1 4700   0.599   3.862   4.908
 1627SOL    HW2 4701   0.473   3.965   4.915
 1628SOL     OW 4702   0.866   4.178   4.366
 1628SOL    HW1 4703   0.834   4.250   4.304
 1628SOL    HW2 4704   0.890   4.097   4.313
 1629SOL     OW 4705   1.017   3.763   4.477
 1629SOL    HW1 4706   0.945   3.768   4.408
 1629SOL    HW2 4707   0.993   3.694   4.546
 1630SOL     OW 4708   1.429   4.897   4.591
 1630SOL    HW1 4709   1.374   4.813   4.584
 1630SOL    HW2 4710   1.455   4.926   4.499
 1631SOL     OW 4711   1.466   4.314   4.716
 1631SOL    HW1 4712   1.436   4.219   4.723
 1631SOL    HW2 4713   1.539   4.330   4.782
 1632SOL     OW 4714   1.857   4.557   4.101
 1632SOL    HW1 4715   1.899   4.493   4.165
 1632SOL    HW2 4716   1.819   4.506   4.023
 1633SOL     OW 4717   1.664   5.004   4.381
 1633SOL    HW1 4718   1.763   5.012   4.395
 1633SOL    HW2 4719   1.619   5.088   4.412
 1634SOL     OW 4720   1.390   4.299   3.802
 1634SOL    HW1 4721   1.336   4.278   3.883
 1634SOL    HW2 4722   1.481   4.258   3.811
 1635SOL     OW 4723   0.527   3.980   4.052
 1635SOL    HW1 4724   0.554   3.921   3.977
 1635SOL    HW2 4725   0.527   4.075   4.021
 1636SOL     OW 4726   1.638   4.823   4.803
 1636SOL    HW1 4727   1.643   4.904   4.862
 1636SOL    HW2 4728   1.552   4.825   4.752
 1637SOL     OW 4729   0.705   4.774   4.092
 1637SOL    HW1 4730   0.691   4.781   4.191
 1637SOL    HW2 4731   0.789   4.723   4.074
 1638SOL     OW 4732   0.410   4.537   4.975
 1638SOL    HW1 4733   0.496   4.549   5.025
 1638SOL    HW2 4734   0.368   4.450   5.002
 1639SOL     OW 4735   1.274   4.110   4.986
 1639SOL    HW1 4736   1.295   4.184   5.050
 1639SOL    HW2 4737   1.185   4.127   4.943
 1640SOL     OW 4738   0.367   4.824   4.225
 1640SOL    HW1 4739   0.360   4.907   4.169
 1640SOL    HW2 4740   0.371   4.744   4.165
 1641SOL     OW 4741   0.566   4.261   4.589
 1641SOL    HW1 4742   0.578   4.327   4.515
 1641SOL    HW2 4743   0.612   4.295   4.672
 1642SOL     OW 4744   1.582   4.363   4.196
 1642SOL    HW1 4745   1.551   4.424   4.269
 1642SOL    HW2 4746   1.632   4.415   4.127
 1643SOL     OW 4747   0.573   4.594   4.753
 1643SOL    HW1 4748   0.617   4.683   4.744
 1643SOL    HW2 4749   0.510   4.594   4.830
 1644SOL     OW 4750   1.360   4.586   4.769
 1644SOL    HW1 4751   1.285   4.586   4.703
 1644SOL    HW2 4752   1.397   4.494   4.778
 1645SOL     OW 4753   1.209   4.249   3.999
 1645SOL    HW1 4754   1.222   4.165   4.053
 1645SOL    HW2 4755   1.180   4.323   4.059
 1646SOL     OW 4756   0.307   3.937   4.955
 1646SOL    HW1 4757   0.284   3.974   5.045
 1646SOL    HW2 4758   0.277   3.842   4.949
 1647SOL     OW 4759   0.037   5.034   5.006
 1647SOL    HW1 4760   0.090   4.985   5.074
 1647SOL    HW2 4761   0.059   5.132   5.011
 1648SOL     OW 4762   0.732   4.358   4.788
 1648SOL    HW1 4763   0.791   4.332   4.712
 1648SOL    HW2 4764   0.704   4.454   4.777
 1649SOL     OW 4765   0.307   3.787   4.342
 1649SOL    HW1 4766   0.296   3.881   4.375
 1649SOL    HW2 4767   0.302   3.724   4.419
 1650SOL     OW 4768   1.622   4.091   4.098
 1650SOL    HW1 4769   1.624   4.015   4.162
 1650SOL    HW2 4770   1.574   4.168   4.138
 1651SOL     OW 4771   1.023   4.490   4.690
 1651SOL    HW1 4772   1.038   4.511   4.786
 1651SOL    HW2 4773   0.993   4.395   4.681
 1652SOL     OW 4774   1.540   3.998   3.849
 1652SOL    HW1 4775   1.479   3.923   3.872
 1652SOL    HW2 4776   1.562   4.050   3.932
 1653SOL     OW 4777   1.303   4.562   3.766
 1653SOL    HW1 4778   1.337   4.469   3.781
 1653SOL    HW2 4779   1.321   4.589   3.671
 1654SOL     OW 4780   0.319   4.534   4.673
 1654SOL    HW1 4781   0.412   4.570   4.678
 1654SOL    HW2 4782   0.313   4.449   4.725
 1655SOL     OW 4783   0.339   4.233   4.730
 1655SOL    HW1 4784   0.287   4.150   4.713
 1655SOL    HW2 4785   0.416   4.238   4.666
 1656SOL     OW 4786   1.160   3.931   5.201
 1656SOL    HW1 4787   1.160   3.995   5.278
 1656SOL    HW2 4788   1.188   3.979   5.118
 1657SOL     OW 4789   0.008   5.050   3.924
 1657SOL    HW1 4790  -0.085   5.071   3.893
 1657SOL    HW2 4791   0.018   4.951   3.937
 1658SOL     OW 4792   1.002   4.520   4.962
 1658SOL    HW1 4793   1.043   4.488   5.048
 1658SOL    HW2 4794   0.906   4.493   4.959
 1659SOL     OW 4795   0.040   4.268   4.838
 1659SOL    HW1 4796   0.125   4.235   4.797
 1659SOL    HW2 4797   0.053   4.283   4.936
 1660SOL     OW 4798   0.815   4.296   4.049
 1660SOL    HW1 4799   0.822   4.207   4.003
 1660SOL    HW2 4800   0.721   4.330   4.041
 1661SOL     OW 4801   1.657   4.328   4.930
 1661SOL    HW1 4802   1.619   4.259   4.992
 1661SOL    HW2 4803   1.739   4.292   4.886
 1662SOL     OW 4804   0.671   4.188   4.993
 1662SOL    HW1 4805   0.637   4.099   4.963
 1662SOL    HW2 4806   0.697   4.242   4.913
 1663SOL     OW 4807   0.473   4.224   3.915
 1663SOL    HW1 4808   0.534   4.304   3.919
 1663SOL    HW2 4809   0.378   4.255   3.922
 1664SOL     OW 4810   1.347   4.783   4.958
 1664SOL    HW1 4811   1.371   4.720   4.884
 1664SOL    HW2 4812   1.257   4.823   4.940
 1665SOL     OW 4813   1.302   4.579   4.033
 1665SOL    HW1 4814   1.216   4.548   4.075
 1665SOL    HW2 4815   1.298   4.565   3.934
 1666SOL     OW 4816   0.083   4.982   4.746
 1666SOL    HW1 4817   0.078   4.981   4.846
 1666SOL    HW2 4818   0.000   4.941   4.708
 1667SOL     OW 4819   1.726   3.859   4.247
 1667SOL    HW1 4820   1.799   3.842   4.180
 1667SOL    HW2 4821   1.695   3.772   4.285
 1668SOL     OW 4822   1.280   4.651   4.396
 1668SOL    HW1 4823   1.340   4.570   4.398
 1668SOL    HW2 4824   1.320   4.720   4.336
 1669SOL     OW 4825   0.830   4.997   5.146
 1669SOL    HW1 4826   0.825   5.030   5.241
 1669SOL    HW2 4827   0.744   5.016   5.100
 1670SOL     OW 4828   1.841   3.899   4.687
 1670SOL    HW1 4829   1.880   3.814   4.651
 1670SOL    HW2 4830   1.743   3.901   4.668
 1671SOL     OW 4831   0.263   4.050   4.444
 1671SOL    HW1 4832   0.184   4.101   4.410
 1671SOL    HW2 4833   0.254   4.035   4.542
 1672SOL     OW 4834   1.194   5.336   3.755
 1672SOL    HW1 4835   1.200   5.243   3.792
 1672SOL    HW2 4836   1.135   5.336   3.675
 1673SOL     OW 4837   0.822   4.726   5.096
 1673SOL    HW1 4838   0.862   4.725   5.004
 1673SOL    HW2 4839   0.832   4.818   5.136
 1674SOL     OW 4840   0.916   4.634   4.015
 1674SOL    HW1 4841   0.979   4.672   3.947
 1674SOL    HW2 4842   0.956   4.551   4.054
 1675SOL     OW 4843   1.039   4.822   4.420
 1675SOL    HW1 4844   0.969   4.775   4.474
 1675SOL    HW2 4845   1.098   4.754   4.377
 1676SOL     OW 4846   1.014   3.960   4.695
 1676SOL    HW1 4847   1.006   3.924   4.602
 1676SOL    HW2 4848   1.012   3.884   4.760
 1677SOL     OW 4849   1.709   4.109   5.105
 1677SOL    HW1 4850   1.782   4.178   5.109
 1677SOL    HW2 4851   1.737   4.034   5.046
 1678SOL     OW 4852   0.075   4.069   3.757
 1678SOL    HW1 4853  -0.017   4.041   3.728
 1678SOL    HW2 4854   0.106   4.146   3.701
 1679SOL     OW 4855   0.072   3.890   4.042
 1679SOL    HW1 4856   0.055   3.973   3.988
 1679SOL    HW2 4857   0.162   3.853   4.020
 1680SOL     OW 4858   1.450   4.944   5.357
 1680SOL    HW1 4859   1.441   4.934   5.456
 1680SOL    HW2 4860   1.546   4.937   5.331
 1681SOL     OW 4861   1.674   4.607   4.978
 1681SOL    HW1 4862   1.647   4.518   4.941
 1681SOL    HW2 4863   1.675   4.675   4.905
 1682SOL     OW 4864   1.225   4.049   4.173
 1682SOL    HW1 4865   1.290   3.975   4.162
 1682SOL    HW2 4866   1.245   4.099   4.257
 1683SOL     OW 4867   0.594   4.469   4.376
 1683SOL    HW1 4868   0.644   4.554   4.357
 1683SOL    HW2 4869   0.506   4.471   4.328
 1684SOL     OW 4870   1.730   4.658   5.241
 1684SOL    HW1 4871   1.768   4.749   5.256
 1684SOL    HW2 4872   1.722   4.641   5.142
 1685SOL     OW 4873   0.859   4.680   4.585
 1685SOL    HW1 4874   0.913   4.611   4.633
 1685SOL    HW2 4875   0.827   4.749   4.651
 1686SOL     OW 4876   1.083   4.708   3.811
 1686SOL    HW1 4877   1.060   4.761   3.729
 1686SOL    HW2 4878   1.164   4.652   3.792
 1687SOL     OW 4879   0.079   4.964   4.377
 1687SOL    HW1 4880   0.078   4.917   4.465
 1687SOL    HW2 4881   0.161   4.936   4.326
 1688SOL     OW 4882   1.824   3.916   4.951
 1688SOL    HW1 4883   1.820   3.826   4.995
 1688SOL    HW2 4884   1.827   3.905   4.852
 1689SOL     OW 4885   0.428   4.148   4.244
 1689SOL    HW1 4886   0.458   4.076   4.182
 1689SOL    HW2 4887   0.389   4.108   4.327
 1690SOL     OW 4888   1.424   3.938   4.836
 1690SOL    HW1 4889   1.476   3.873   4.891
 1690SOL    HW2 4890   1.375   4.001   4.897
 1691SOL     OW 4891   1.001   3.758   4.878
 1691SOL    HW1 4892   0.938   3.686   4.847
 1691SOL    HW2 4893   1.094   3.722   4.878
 1692SOL     OW 4894   0.770   5.054   4.025
 1692SOL    HW1 4895   0.724   4.967   4.042
 1692SOL    HW2 4896   0.861   5.051   4.066
 1693SOL     OW 4897   1.352   3.776   3.892
 1693SOL    HW1 4898   1.387   3.735   3.808
 1693SOL    HW2 4899   1.262   3.738   3.912
 1694SOL     OW 4900   1.300   4.177   4.415
 1694SOL    HW1 4901   1.241   4.257   4.419
 1694SOL    HW2 4902   1.315   4.142   4.508
 1695SOL     OW 4903   1.593   3.945   4.606
 1695SOL    HW1 4904   1.509   3.944   4.660
 1695SOL    HW2 4905   1.595   4.028   4.550
 1696SOL     OW 4906   0.039   4.801   4.024
 1696SOL    HW1 4907   0.138   4.790   4.015
 1696SOL    HW2 4908  -0.001   4.715   4.056
 1697SOL     OW 4909   2.092   0.628   0.113
 1697SOL    HW1 4910   1.999   0.626   0.150
 1697SOL    HW2 4911   2.093   0.589   0.021
 1698SOL     OW 4912   2.087   0.275   0.996
 1698SOL    HW1 4913   2.122   0.258   1.088
 1698SOL    HW2 4914   1.999   0.230   0.984
 1699SOL     OW 4915   1.881   0.368   0.647
 1699SOL    HW1 4916   1.799   0.411   0.686
 1699SOL    HW2 4917   1.853   0.295   0.584
 1700SOL     OW 4918   2.431   1.275   1.165
 1700SOL    HW1 4919   2.338   1.268   1.128
 1700SOL    HW2 4920   2.442   1.364   1.209
 1701SOL     OW 4921   3.417   1.511   0.703
 1701SOL    HW1 4922   3.360   1.495   0.784
 1701SOL    HW2 4923   3.358   1.521   0.623
 1702SOL     OW 4924   2.997   0.703   0.717
 1702SOL    HW1 4925   3.054   0.781   0.692
 1702SOL    HW2 4926   2.937   0.729   0.793
 1703SOL     OW 4927   3.617   0.607   0.231
 1703SOL    HW1 4928   3.605   0.594   0.132
 1703SOL    HW2 4929   3.587   0.526   0.280
 1704SOL     OW 4930   2.630   1.144   1.023
 1704SOL    HW1 4931   2.552   1.161   1.083
 1704SOL    HW2 4932   2.664   1.231   0.987
 1705SOL     OW 4933   2.712   0.798   1.823
 1705SOL    HW1 4934   2.708   0.874   1.888
 1705SOL    HW2 4935   2.734   0.834   1.732
 1706SOL     OW 4936   2.547   1.012   0.665
 1706SOL    HW1 4937   2.616   0.996   0.735
 1706SOL    HW2 4938   2.474   1.069   0.703
 1707SOL     OW 4939   2.548   1.161   1.803
 1707SOL    HW1 4940   2.608   1.240   1.817
 1707SOL    HW2 4941   2.462   1.192   1.762
 1708SOL     OW 4942   2.197   1.435   1.061
 1708SOL    HW1 4943   2.119   1.404   1.008
 1708SOL    HW2 4944   2.255   1.493   1.004
 1709SOL     OW 4945   3.322   1.505   1.339
 1709SOL    HW1 4946   3.346   1.599   1.365
 1709SOL    HW2 4947   3.306   1.451   1.421
 1710SOL     OW 4948   2.300   0.392   1.499
 1710SOL    HW1 4949   2.382   0.336   1.508
 1710SOL    HW2 4950   2.219   0.334   1.503
 1711SOL     OW 4951   3.465   0.447   0.737
 1711SOL    HW1 4952   3.391   0.493   0.687
 1711SOL    HW2 4953   3.516   0.515   0.790
 1712SOL     OW 4954   2.093   1.713   0.483
 1712SOL    HW1 4955   2.127   1.790   0.537
 1712SOL    HW2 4956   2.137   1.713   0.393
 1713SOL     OW 4957   2.989   1.341   1.690
 1713SOL    HW1 4958   3.036   1.341   1.778
 1713SOL    HW2 4959   2.941   1.254   1.679
 1714SOL     OW 4960   2.092   1.434   0.538
 1714SOL    HW1 4961   2.066   1.530   0.538
 1714SOL    HW2 4962   2.021   1.380   0.583
 1715SOL     OW 4963   2.102   1.091   0.886
 1715SOL    HW1 4964   2.116   1.007   0.938
 1715SOL    HW2 4965   2.047   1.155   0.941
 1716SOL     OW 4966   2.482   1.786   1.439
 1716SOL    HW1 4967   2.390   1.769   1.474
 1716SOL    HW2 4968   2.510   1.878   1.465
 1717SOL     OW 4969   2.468   0.964   0.123
 1717SOL    HW1 4970   2.475   1.048   0.069
 1717SOL    HW2 4971   2.514   0.977   0.211
 1718SOL     OW 4972   3.456   0.114   1.480
 1718SOL    HW1 4973   3.438   0.181   1.408
 1718SOL    HW2 4974   3.453   0.160   1.569
 1719SOL     OW 4975   1.984   0.643   0.563
 1719SOL    HW1 4976   1.939   0.555   0.580
 1719SOL    HW2 4977   1.983   0.697   0.647
 1720SOL     OW 4978   3.704   1.767   0.359
 1720SOL    HW1 4979   3.758   1.738   0.439
 1720SOL    HW2 4980   3.734   1.857   0.330
 1721SOL     OW 4981   1.889   1.596   0.117
 1721SOL    HW1 4982   1.870   1.500   0.138
 1721SOL    HW2 4983   1.856   1.654   0.192
 1722SOL     OW 4984   3.551   0.922   0.612
 1722SOL    HW1 4985   3.646   0.893   0.620
 1722SOL    HW2 4986   3.543   0.987   0.537
 1723SOL     OW 4987   3.503   1.108   0.432
 1723SOL    HW1 4988   3.589   1.110   0.380
 1723SOL    HW2 4989   3.517   1.155   0.520
 1724SOL     OW 4990   1.975   0.737   1.597
 1724SOL    HW1 4991   2.063   0.724   1.642
 1724SOL    HW2 4992   1.962   0.834   1.575
 1725SOL     OW 4993   2.475   1.365   0.726
 1725SOL    HW1 4994   2.426   1.278   0.735
 1725SOL    HW2 4995   2.452   1.408   0.639
 1726SOL     OW 4996   3.155   1.228   1.423
 1726SOL    HW1 4997   3.192   1.155   1.365
 1726SOL    HW2 4998   3.207   1.233   1.508
 1727SOL     OW 4999   2.671   0.004   0.502
 1727SOL    HW1 5000   2.711   0.095   0.493
 1727SOL    HW2 5001   2.571   0.012   0.508
 1728SOL     OW 5002   2.059   0.976   1.264
 1728SOL    HW1 5003   2.148   0.931   1.250
 1728SOL    HW2 5004   1.986   0.911   1.245
 1729SOL     OW 5005   3.387   0.999   0.190
 1729SOL    HW1 5006   3.324   0.923   0.203
 1729SOL    HW2 5007   3.435   1.017   0.276
 1730SOL     OW 5008   3.049   1.792   1.616
 1730SOL    HW1 5009   3.073   1.852   1.540
 1730SOL    HW2 5010   3.056   1.697   1.586
 1731SOL     OW 5011   2.179   0.251   1.801
 1731SOL    HW1 5012   2.250   0.322   1.807
 1731SOL    HW2 5013   2.091   0.290   1.829
 1732SOL     OW 5014   3.328   1.417   0.953
 1732SOL    HW1 5015   3.269   1.423   1.033
 1732SOL    HW2 5016   3.313   1.329   0.907
 1733SOL     OW 5017   3.529   1.714   0.572
 1733SOL    HW1 5018   3.488   1.691   0.484
 1733SOL    HW2 5019   3.511   1.640   0.637
 1734SOL     OW 5020   2.460   0.729   0.270
 1734SOL    HW1 5021   2.484   0.798   0.202
 1734SOL    HW2 5022   2.382   0.762   0.324
 1735SOL     OW 5023   3.143   0.345   0.944
 1735SOL    HW1 5024   3.057   0.295   0.931
 1735SOL    HW2 5025   3.205   0.291   1.000
 1736SOL     OW 5026   3.438   1.662   0.307
 1736SOL    HW1 5027   3.527   1.708   0.310
 1736SOL    HW2 5028   3.417   1.638   0.212
 1737SOL     OW 5029   2.669   0.605   1.465
 1737SOL    HW1 5030   2.622   0.602   1.554
 1737SOL    HW2 5031   2.618   0.550   1.399
 1738SOL     OW 5032   3.256   0.469   1.674
 1738SOL    HW1 5033   3.236   0.512   1.762
 1738SOL    HW2 5034   3.334   0.407   1.683
 1739SOL     OW 5035   2.835   0.890   1.572
 1739SOL    HW1 5036   2.881   0.806   1.543
 1739SOL    HW2 5037   2.779   0.924   1.497
 1740SOL     OW 5038   2.853   0.410   1.242
 1740SOL    HW1 5039   2.776   0.444   1.296
 1740SOL    HW2 5040   2.819   0.359   1.163
 1741SOL     OW 5041   2.903   0.701   0.429
 1741SOL    HW1 5042   2.929   0.697   0.525
 1741SOL    HW2 5043   2.818   0.650   0.415
 1742SOL     OW 5044   1.938   0.811   0.789
 1742SOL    HW1 5045   2.037   0.799   0.798
 1742SOL    HW2 5046   1.914   0.906   0.810
 1743SOL     OW 5047   1.992   1.821   1.571
 1743SOL    HW1 5048   1.982   1.806   1.670
 1743SOL    HW2 5049   1.906   1.857   1.535
 1744SOL     OW 5050   2.727   0.348   0.195
 1744SOL    HW1 5051   2.786   0.411   0.146
 1744SOL    HW2 5052   2.746   0.254   0.166
 1745SOL     OW 5053   3.581   0.585   1.831
 1745SOL    HW1 5054   3.555   0.674   1.795
 1745SOL    HW2 5055   3.579   0.517   1.758
 1746SOL     OW 5056   3.224   1.144   0.545
 1746SOL    HW1 5057   3.307   1.115   0.497
 1746SOL    HW2 5058   3.175   1.211   0.489
 1747SOL     OW 5059   2.412   0.196   0.885
 1747SOL    HW1 5060   2.407   0.191   0.985
 1747SOL    HW2 5061   2.414   0.292   0.856
 1748SOL     OW 5062   2.870   1.456   0.477
 1748SOL    HW1 5063   2.824   1.528   0.425
 1748SOL    HW2 5064   2.866   1.476   0.575
 1749SOL     OW 5065   2.213   1.801   0.853
 1749SOL    HW1 5066   2.263   1.715   0.859
 1749SOL    HW2 5067   2.278   1.878   0.850
 1750SOL     OW 5068   3.657   1.066   0.873
 1750SOL    HW1 5069   3.595   1.051   0.797
 1750SOL    HW2 5070   3.605   1.077   0.958
 1751SOL     OW 5071   3.089   1.550   1.506
 1751SOL    HW1 5072   3.095   1.473   1.570
 1751SOL    HW2 5073   3.037   1.524   1.426
 1752SOL     OW 5074   2.183   0.943   0.242
 1752SOL    HW1 5075   2.265   0.982   0.200
 1752SOL    HW2 5076   2.156   0.861   0.193
 1753SOL     OW 5077   3.320   0.735   0.728
 1753SOL    HW1 5078   3.315   0.670   0.803
 1753SOL    HW2 5079   3.400   0.794   0.741
 1754SOL     OW 5080   2.323   1.266   1.727
 1754SOL    HW1 5081   2.273   1.267   1.641
 1754SOL    HW2 5082   2.260   1.248   1.803
 1755SOL     OW 5083   2.973   1.776   0.237
 1755SOL    HW1 5084   2.913   1.714   0.287
 1755SOL    HW2 5085   3.004   1.732   0.152
 1756SOL     OW 5086   2.064   0.285   1.498
 1756SOL    HW1 5087   1.984   0.345   1.485
 1756SOL    HW2 5088   2.054   0.236   1.584
 1757SOL     OW 5089   3.494   1.377   0.081
 1757SOL    HW1 5090   3.462   1.471   0.071
 1757SOL    HW2 5091   3.418   1.314   0.069
 1758SOL     OW 5092   2.326   1.743   0.323
 1758SOL    HW1 5093   2.359   1.782   0.409
 1758SOL    HW2 5094   2.402   1.736   0.258
 1759SOL     OW 5095   3.262   0.107   0.426
 1759SOL    HW1 5096   3.238   0.070   0.336
 1759SOL    HW2 5097   3.361   0.123   0.430
 1760SOL     OW 5098   2.111   1.785   1.241
 1760SOL    HW1 5099   2.168   1.720   1.291
 1760SOL    HW2 5100   2.095   1.752   1.148
 1761SOL     OW 5101   2.802   1.698   0.904
 1761SOL    HW1 5102   2.882   1.641   0.925
 1761SOL    HW2 5103   2.753   1.658   0.827
 1762SOL     OW 5104   2.244   0.700   0.480
 1762SOL    HW1 5105   2.289   0.610   0.477
 1762SOL    HW2 5106   2.150   0.689   0.513
 1763SOL     OW 5107   3.409   0.222   1.729
 1763SOL    HW1 5108   3.404   0.259   1.821
 1763SOL    HW2 5109   3.337   0.153   1.717
 1764SOL     OW 5110   2.476   0.122   0.117
 1764SOL    HW1 5111   2.574   0.100   0.124
 1764SOL    HW2 5112   2.445   0.105   0.024
 1765SOL     OW 5113   2.643   0.264   1.749
 1765SOL    HW1 5114   2.710   0.203   1.792
 1765SOL    HW2 5115   2.570   0.283   1.814
 1766SOL     OW 5116   2.750   1.514   1.195
 1766SOL    HW1 5117   2.727   1.489   1.101
 1766SOL    HW2 5118   2.811   1.445   1.234
 1767SOL     OW 5119   3.213   0.590   1.433
 1767SOL    HW1 5120   3.241   0.547   1.518
 1767SOL    HW2 5121   3.238   0.686   1.434
 1768SOL     OW 5122   2.665   1.402   0.924
 1768SOL    HW1 5123   2.755   1.416   0.882
 1768SOL    HW2 5124   2.594   1.404   0.853
 1769SOL     OW 5125   2.784   0.503   0.899
 1769SOL    HW1 5126   2.759   0.494   0.803
 1769SOL    HW2 5127   2.832   0.421   0.930
 1770SOL     OW 5128   2.401   0.064   0.512
 1770SOL    HW1 5129   2.320   0.065   0.570
 1770SOL    HW2 5130   2.404   0.147   0.457
 1771SOL     OW 5131   3.296   1.188   0.041
 1771SOL    HW1 5132   3.328   1.112   0.098
 1771SOL    HW2 5133   3.204   1.215   0.071
 1772SOL     OW 5134   2.159   0.035   0.171
 1772SOL    HW1 5135   2.208   0.119   0.150
 1772SOL    HW2 5136   2.221  -0.030   0.216
 1773SOL     OW 5137   2.797   0.236   0.480
 1773SOL    HW1 5138   2.749   0.277   0.402
 1773SOL    HW2 5139   2.896   0.234   0.461
 1774SOL     OW 5140   2.938   0.683   1.464
 1774SOL    HW1 5141   2.858   0.622   1.467
 1774SOL    HW2 5142   3.019   0.630   1.440
 1775SOL     OW 5143   3.089   1.570   0.793
 1775SOL    HW1 5144   3.110   1.644   0.728
 1775SOL    HW2 5145   3.157   1.570   0.866
 1776SOL     OW 5146   2.321   1.152   0.741
 1776SOL    HW1 5147   2.250   1.125   0.806
 1776SOL    HW2 5148   2.295   1.124   0.648
 1777SOL     OW 5149   3.133   1.797   0.591
 1777SOL    HW1 5150   3.177   1.861   0.527
 1777SOL    HW2 5151   3.083   1.849   0.661
 1778SOL     OW 5152   2.894   0.549   0.016
 1778SOL    HW1 5153   2.853   0.631  -0.023
 1778SOL    HW2 5154   2.958   0.575   0.089
 1779SOL     OW 5155   1.940   0.556   1.386
 1779SOL    HW1 5156   2.032   0.555   1.345
 1779SOL    HW2 5157   1.934   0.630   1.453
 1780SOL     OW 5158   2.423   0.222   1.147
 1780SOL    HW1 5159   2.461   0.138   1.184
 1780SOL    HW2 5160   2.335   0.241   1.191
 1781SOL     OW 5161   2.728   0.454   0.642
 1781SOL    HW1 5162   2.696   0.526   0.580
 1781SOL    HW2 5163   2.752   0.373   0.589
 1782SOL     OW 5164   2.879   0.039   0.753
 1782SOL    HW1 5165   2.807   0.044   0.684
 1782SOL    HW2 5166   2.855  -0.030   0.822
 1783SOL     OW 5167   3.291   1.173   0.867
 1783SOL    HW1 5168   3.236   1.089   0.860
 1783SOL    HW2 5169   3.317   1.202   0.775
 1784SOL     OW 5170   3.328   0.590   0.992
 1784SOL    HW1 5171   3.298   0.495   0.999
 1784SOL    HW2 5172   3.401   0.606   1.058
 1785SOL     OW 5173   3.719   0.833   0.377
 1785SOL    HW1 5174   3.761   0.769   0.441
 1785SOL    HW2 5175   3.681   0.782   0.299
 1786SOL     OW 5176   2.350   1.385   0.174
 1786SOL    HW1 5177   2.263   1.370   0.221
 1786SOL    HW2 5178   2.333   1.411   0.079
 1787SOL     OW 5179   3.526   1.280   0.657
 1787SOL    HW1 5180   3.625   1.288   0.671
 1787SOL    HW2 5181   3.481   1.364   0.688
 1788SOL     OW 5182   3.252   0.575   0.078
 1788SOL    HW1 5183   3.198   0.554   0.159
 1788SOL    HW2 5184   3.343   0.534   0.087
 1789SOL     OW 5185   2.389   0.256   0.328
 1789SOL    HW1 5186   2.416   0.197   0.253
 1789SOL    HW2 5187   2.389   0.351   0.297
 1790SOL     OW 5188   3.616   1.223   1.588
 1790SOL    HW1 5189   3.707   1.184   1.575
 1790SOL    HW2 5190   3.624   1.319   1.612
 1791SOL     OW 5191   2.926   1.347   1.340
 1791SOL    HW1 5192   2.846   1.324   1.395
 1791SOL    HW2 5193   3.009   1.321   1.389
 1792SOL     OW 5194   3.454   1.629   1.625
 1792SOL    HW1 5195   3.481   1.663   1.535
 1792SOL    HW2 5196   3.533   1.591   1.671
 1793SOL     OW 5197   2.973   1.195   1.100
 1793SOL    HW1 5198   2.933   1.239   1.181
 1793SOL    HW2 5199   2.932   1.232   1.017
 1794SOL     OW 5200   3.500   1.099   1.079
 1794SOL    HW1 5201   3.505   1.180   1.138
 1794SOL    HW2 5202   3.414   1.101   1.028
 1795SOL     OW 5203   2.777   0.089   1.402
 1795SOL    HW1 5204   2.802   0.069   1.307
 1795SOL    HW2 5205   2.849   0.145   1.444
 1796SOL     OW 5206   2.842   1.116   1.719
 1796SOL    HW1 5207   2.743   1.122   1.729
 1796SOL    HW2 5208   2.865   1.036   1.663
 1797SOL     OW 5209   2.567   1.050   0.368
 1797SOL    HW1 5210   2.553   1.057   0.467
 1797SOL    HW2 5211   2.651   0.999   0.350
 1798SOL     OW 5212   2.272   0.813   1.251
 1798SOL    HW1 5213   2.358   0.825   1.301
 1798SOL    HW2 5214   2.230   0.726   1.278
 1799SOL     OW 5215   3.136   0.386   1.262
 1799SOL    HW1 5216   3.157   0.460   1.326
 1799SOL    HW2 5217   3.047   0.403   1.219
 1800SOL     OW 5218   1.926   1.564   1.331
 1800SOL    HW1 5219   1.880   1.646   1.297
 1800SOL    HW2 5220   2.024   1.583   1.340
 1801SOL     OW 5221   2.229   1.100   0.501
 1801SOL    HW1 5222   2.222   1.183   0.445
 1801SOL    HW2 5223   2.233   1.020   0.441
 1802SOL     OW 5224   2.428   0.537   0.865
 1802SOL    HW1 5225   2.440   0.603   0.791
 1802SOL    HW2 5226   2.474   0.571   0.948
 1803SOL     OW 5227   3.114   1.348   0.388
 1803SOL    HW1 5228   3.164   1.425   0.428
 1803SOL    HW2 5229   3.019   1.350   0.420
 1804SOL     OW 5230   3.134   1.445   1.142
 1804SOL    HW1 5231   3.181   1.458   1.229
 1804SOL    HW2 5232   3.068   1.371   1.151
 1805SOL     OW 5233   3.444   0.639   0.472
 1805SOL    HW1 5234   3.413   0.700   0.545
 1805SOL    HW2 5235   3.494   0.691   0.403
 1806SOL     OW 5236   2.216   1.510   1.329
 1806SOL    HW1 5237   2.195   1.466   1.242
 1806SOL    HW2 5238   2.313   1.536   1.332
 1807SOL     OW 5239   2.264   0.751   1.598
 1807SOL    HW1 5240   2.332   0.806   1.551
 1807SOL    HW2 5241   2.304   0.663   1.625
 1808SOL     OW 5242   3.449   0.779   1.670
 1808SOL    HW1 5243   3.357   0.817   1.665
 1808SOL    HW2 5244   3.509   0.826   1.605
 1809SOL     OW 5245   2.875   0.105   1.770
 1809SOL    HW1 5246   2.881   0.190   1.718
 1809SOL    HW2 5247   2.907   0.029   1.713
 1810SOL     OW 5248   2.366   0.050   1.740
 1810SOL    HW1 5249   2.324  -0.007   1.670
 1810SOL    HW2 5250   2.300   0.119   1.772
 1811SOL     OW 5251   2.435   0.870   1.029
 1811SOL    HW1 5252   2.479   0.959   1.020
 1811SOL    HW2 5253   2.372   0.870   1.106
 1812SOL     OW 5254   3.222   0.862   1.045
 1812SOL    HW1 5255   3.147   0.862   0.979
 1812SOL    HW2 5256   3.259   0.770   1.054
 1813SOL     OW 5257   3.071   0.525   0.275
 1813SOL    HW1 5258   3.084   0.441   0.329
 1813SOL    HW2 5259   3.042   0.599   0.335
 1814SOL     OW 5260   2.169   0.213   1.231
 1814SOL    HW1 5261   2.146   0.250   1.321
 1814SOL    HW2 5262   2.139   0.118   1.225
 1815SOL     OW 5263   1.899   1.310   1.282
 1815SOL    HW1 5264   1.952   1.261   1.350
 1815SOL    HW2 5265   1.921   1.408   1.287
 1816SOL     OW 5266   2.594   0.634   1.064
 1816SOL    HW1 5267   2.653   0.608   0.988
 1816SOL    HW2 5268   2.566   0.730   1.053
 1817SOL     OW 5269   3.590   0.935   1.854
 1817SOL    HW1 5270   3.544   0.928   1.765
 1817SOL    HW2 5271   3.528   0.979   1.920
 1818SOL     OW 5272   2.169   0.063   0.618
 1818SOL    HW1 5273   2.158   0.157   0.651
 1818SOL    HW2 5274   2.164   0.000   0.695
 1819SOL     OW 5275   3.484   0.367   0.374
 1819SOL    HW1 5276   3.486   0.291   0.438
 1819SOL    HW2 5277   3.436   0.444   0.414
 1820SOL     OW 5278   2.885   0.766   0.966
 1820SOL    HW1 5279   2.900   0.787   1.062
 1820SOL    HW2 5280   2.855   0.671   0.957
 1821SOL     OW 5281   2.842   1.573   1.700
 1821SOL    HW1 5282   2.822   1.617   1.612
 1821SOL    HW2 5283   2.881   1.482   1.684
 1822SOL     OW 5284   3.721   1.518   1.605
 1822SOL    HW1 5285   3.735   1.545   1.510
 1822SOL    HW2 5286   3.804   1.540   1.658
 1823SOL     OW 5287   2.212   0.898   1.804
 1823SOL    HW1 5288   2.288   0.942   1.852
 1823SOL    HW2 5289   2.247   0.851   1.722
 1824SOL     OW 5290   3.402   0.274   0.125
 1824SOL    HW1 5291   3.341   0.199   0.148
 1824SOL    HW2 5292   3.424   0.326   0.208
 1825SOL     OW 5293   3.165   0.838   0.042
 1825SOL    HW1 5294   3.199   0.745   0.057
 1825SOL    HW2 5295   3.183   0.865  -0.053
 1826SOL     OW 5296   2.930   1.333   0.849
 1826SOL    HW1 5297   2.937   1.249   0.794
 1826SOL    HW2 5298   2.992   1.402   0.813
 1827SOL     OW 5299   2.181   0.810   0.949
 1827SOL    HW1 5300   2.274   0.846   0.954
 1827SOL    HW2 5301   2.175   0.725   1.001
 1828SOL     OW 5302   2.201   0.509   1.006
 1828SOL    HW1 5303   2.149   0.426   0.989
 1828SOL    HW2 5304   2.278   0.514   0.942
 1829SOL     OW 5305   3.000   0.380   1.678
 1829SOL    HW1 5306   2.955   0.443   1.742
 1829SOL    HW2 5307   3.093   0.411   1.661
 1830SOL     OW 5308   3.022   0.207   1.477
 1830SOL    HW1 5309   3.022   0.271   1.554
 1830SOL    HW2 5310   3.050   0.255   1.394
 1831SOL     OW 5311   1.950   1.801   0.927
 1831SOL    HW1 5312   1.908   1.715   0.900
 1831SOL    HW2 5313   2.044   1.804   0.893
 1832SOL     OW 5314   2.366   1.568   0.910
 1832SOL    HW1 5315   2.432   1.642   0.919
 1832SOL    HW2 5316   2.410   1.489   0.868
 1833SOL     OW 5317   2.864   0.796   1.238
 1833SOL    HW1 5318   2.905   0.764   1.324
 1833SOL    HW2 5319   2.768   0.769   1.235
 1834SOL     OW 5320   1.902   0.544   1.114
 1834SOL    HW1 5321   1.987   0.511   1.073
 1834SOL    HW2 5322   1.915   0.559   1.212
 1835SOL     OW 5323   2.051   0.520   1.722
 1835SOL    HW1 5324   2.110   0.480   1.652
 1835SOL    HW2 5325   1.993   0.591   1.681
 1836SOL     OW 5326   3.231   0.950   1.660
 1836SOL    HW1 5327   3.270   1.039   1.680
 1836SOL    HW2 5328   3.241   0.930   1.563
 1837SOL     OW 5329   2.677   0.572   0.325
 1837SOL    HW1 5330   2.684   0.483   0.279
 1837SOL    HW2 5331   2.583   0.606   0.317
 1838SOL     OW 5332   3.519   0.604   1.206
 1838SOL    HW1 5333   3.481   0.535   1.268
 1838SOL    HW2 5334   3.601   0.568   1.162
 1839SOL     OW 5335   2.114   1.564   1.744
 1839SOL    HW1 5336   2.084   1.621   1.820
 1839SOL    HW2 5337   2.107   1.467   1.770
 1840SOL     OW 5338   2.533   0.464   1.269
 1840SOL    HW1 5339   2.499   0.375   1.239
 1840SOL    HW2 5340   2.559   0.518   1.189
 1841SOL     OW 5341   2.792   1.678   1.465
 1841SOL    HW1 5342   2.768   1.660   1.370
 1841SOL    HW2 5343   2.822   1.772   1.475
 1842SOL     OW 5344   2.335   0.500   0.191
 1842SOL    HW1 5345   2.396   0.580   0.195
 1842SOL    HW2 5346   2.240   0.531   0.198
 1843SOL     OW 5347   2.021   1.137   1.466
 1843SOL    HW1 5348   2.043   1.076   1.542
 1843SOL    HW2 5349   2.031   1.088   1.380
 1844SOL     OW 5350   3.209   1.059   1.234
 1844SOL    HW1 5351   3.233   0.996   1.160
 1844SOL    HW2 5352   3.119   1.099   1.216
 1845SOL     OW 5353   3.164   0.855   0.309
 1845SOL    HW1 5354   3.078   0.824   0.351
 1845SOL    HW2 5355   3.160   0.841   0.210
 1846SOL     OW 5356   3.621   1.747   1.154
 1846SOL    HW1 5357   3.682   1.777   1.081
 1846SOL    HW2 5358   3.583   1.658   1.132
 1847SOL     OW 5359   3.114   1.731   1.128
 1847SOL    HW1 5360   3.198   1.736   1.074
 1847SOL    HW2 5361   3.091   1.635   1.146
 1848SOL     OW 5362   1.945   1.258   1.022
 1848SOL    HW1 5363   1.940   1.257   1.122
 1848SOL    HW2 5364   1.862   1.217   0.984
 1849SOL     OW 5365   2.550   1.662   1.716
 1849SOL    HW1 5366   2.494   1.743   1.725
 1849SOL    HW2 5367   2.602   1.666   1.630
 1850SOL     OW 5368   2.765   0.086   0.133
 1850SOL    HW1 5369   2.816   0.087   0.047
 1850SOL    HW2 5370   2.821   0.044   0.204
 1851SOL     OW 5371   3.588   0.135   0.523
 1851SOL    HW1 5372   3.661   0.118   0.456
 1851SOL    HW2 5373   3.557   0.048   0.561
 1852SOL     OW 5374   3.250   1.573   0.477
 1852SOL    HW1 5375   3.317   1.585   0.403
 1852SOL    HW2 5376   3.210   1.662   0.500
 1853SOL     OW 5377   1.992   1.794   1.851
 1853SOL    HW1 5378   1.951   1.720   1.904
 1853SOL    HW2 5379   2.056   1.845   1.909
 1854SOL     OW 5380   3.142   0.927   0.672
 1854SOL    HW1 5381   3.202   0.846   0.674
 1854SOL    HW2 5382   3.182   0.996   0.612
 1855SOL     OW 5383   2.692   1.273   1.422
 1855SOL    HW1 5384   2.687   1.306   1.517
 1855SOL    HW2 5385   2.606   1.292   1.376
 1856SOL     OW 5386   2.534   1.616   0.154
 1856SOL    HW1 5387   2.543   1.626   0.055
 1856SOL    HW2 5388   2.494   1.527   0.175
 1857SOL     OW 5389   3.512   1.720   1.394
 1857SOL    HW1 5390   3.565   1.730   1.310
 1857SOL    HW2 5391   3.485   1.810   1.428
 1858SOL     OW 5392   3.703   0.175   0.963
 1858SOL    HW1 5393   3.742   0.090   0.927
 1858SOL    HW2 5394   3.605   0.177   0.944
 1859SOL     OW 5395   2.125   0.326   0.720
 1859SOL    HW1 5396   2.046   0.377   0.686
 1859SOL    HW2 5397   2.116   0.311   0.818
 1860SOL     OW 5398   3.056   1.612   0.031
 1860SOL    HW1 5399   3.062   1.519   0.068
 1860SOL    HW2 5400   2.997   1.612  -0.049
 1861SOL     OW 5401   2.684   1.002   1.372
 1861SOL    HW1 5402   2.724   1.001   1.280
 1861SOL    HW2 5403   2.694   1.094   1.412
 1862SOL     OW 5404   2.778   0.910   0.291
 1862SOL    HW1 5405   2.841   0.948   0.223
 1862SOL    HW2 5406   2.818   0.827   0.330
 1863SOL     OW 5407   3.366   1.607   0.044
 1863SOL    HW1 5408   3.274   1.644   0.051
 1863SOL    HW2 5409   3.404   1.627  -0.046
 1864SOL     OW 5410   2.234   1.288   1.490
 1864SOL    HW1 5411   2.221   1.381   1.456
 1864SOL    HW2 5412   2.150   1.236   1.477
 1865SOL     OW 5413   3.476   1.292   1.289
 1865SOL    HW1 5414   3.536   1.295   1.369
 1865SOL    HW2 5415   3.401   1.356   1.302
 1866SOL     OW 5416   2.901   1.098   0.696
 1866SOL    HW1 5417   2.831   1.051   0.750
 1866SOL    HW2 5418   2.960   1.030   0.653
 1867SOL     OW 5419   2.876   0.236   0.971
 1867SOL    HW1 5420   2.868   0.200   0.878
 1867SOL    HW2 5421   2.874   0.160   1.036
 1868SOL     OW 5422   2.452   1.487   0.491
 1868SOL    HW1 5423   2.494   1.429   0.421
 1868SOL    HW2 5424   2.408   1.566   0.447
 1869SOL     OW 5425   3.571   0.385   1.381
 1869SOL    HW1 5426   3.644   0.454   1.385
 1869SOL    HW2 5427   3.599   0.310   1.322
 1870SOL     OW 5428   2.117   1.348   0.290
 1870SOL    HW1 5429   2.021   1.349   0.263
 1870SOL    HW2 5430   2.129   1.401   0.374
 1871SOL     OW 5431   1.967   1.013   1.726
 1871SOL    HW1 5432   1.890   0.980   1.780
 1871SOL    HW2 5433   2.052   0.983   1.768
 1872SOL     OW 5434   2.534   0.203   1.489
 1872SOL    HW1 5435   2.624   0.187   1.449
 1872SOL    HW2 5436   2.542   0.208   1.588
 1873SOL     OW 5437   3.302   0.856   1.398
 1873SOL    HW1 5438   3.245   0.908   1.335
 1873SOL    HW2 5439   3.398   0.868   1.374
 1874SOL     OW 5440   1.934   0.166   0.318
 1874SOL    HW1 5441   1.917   0.249   0.264
 1874SOL    HW2 5442   2.024   0.129   0.296
 1875SOL     OW 5443   3.045   1.335   0.119
 1875SOL    HW1 5444   2.946   1.324   0.121
 1875SOL    HW2 5445   3.079   1.350   0.212
 1876SOL     OW 5446   2.475   0.842   1.431
 1876SOL    HW1 5447   2.531   0.923   1.414
 1876SOL    HW2 5448   2.534   0.762   1.434
 1877SOL     OW 5449   3.355   1.767   0.959
 1877SOL    HW1 5450   3.388   1.831   0.890
 1877SOL    HW2 5451   3.421   1.761   1.034
 1878SOL     OW 5452   2.578   0.565   1.708
 1878SOL    HW1 5453   2.597   0.630   1.782
 1878SOL    HW2 5454   2.638   0.485   1.717
 1879SOL     OW 5455   3.312   1.220   1.633
 1879SOL    HW1 5456   3.303   1.210   1.732
 1879SOL    HW2 5457   3.408   1.213   1.607
 1880SOL     OW 5458   2.252   1.741   1.560
 1880SOL    HW1 5459   2.161   1.782   1.558
 1880SOL    HW2 5460   2.245   1.647   1.592
 1881SOL     OW 5461   3.536   0.883   1.254
 1881SOL    HW1 5462   3.509   0.794   1.217
 1881SOL    HW2 5463   3.537   0.951   1.181
 1882SOL     OW 5464   3.087   0.325   0.449
 1882SOL    HW1 5465   3.152   0.251   0.438
 1882SOL    HW2 5466   3.107   0.375   0.533
 1883SOL     OW 5467   2.456   0.745   0.652
 1883SOL    HW1 5468   2.506   0.830   0.633
 1883SOL    HW2 5469   2.368   0.747   0.604
 1884SOL     OW 5470   3.639   0.342   1.642
 1884SOL    HW1 5471   3.622   0.373   1.548
 1884SOL    HW2 5472   3.555   0.305   1.680
 1885SOL     OW 5473   3.592   0.934   1.517
 1885SOL    HW1 5474   3.630   1.025   1.532
 1885SOL    HW2 5475   3.584   0.917   1.418
 1886SOL     OW 5476   2.721   1.374   0.016
 1886SOL    HW1 5477   2.675   1.389   0.104
 1886SOL    HW2 5478   2.765   1.459  -0.014
 1887SOL     OW 5479   2.523   1.790   0.953
 1887SOL    HW1 5480   2.477   1.878   0.940
 1887SOL    HW2 5481   2.622   1.802   0.946
 1888SOL     OW 5482   2.721   0.956   0.861
 1888SOL    HW1 5483   2.775   0.887   0.909
 1888SOL    HW2 5484   2.689   1.025   0.927
 1889SOL     OW 5485   2.945   0.984   0.087
 1889SOL    HW1 5486   2.922   1.037   0.005
 1889SOL    HW2 5487   3.026   0.928   0.068
 1890SOL     OW 5488   3.723   1.569   0.851
 1890SOL    HW1 5489   3.652   1.557   0.781
 1890SOL    HW2 5490   3.724   1.490   0.911
 1891SOL     OW 5491   2.083   1.314   1.844
 1891SOL    HW1 5492   2.018   1.241   1.823
 1891SOL    HW2 5493   2.087   1.328   1.942
 1892SOL     OW 5494   1.941   1.240   0.653
 1892SOL    HW1 5495   1.940   1.193   0.741
 1892SOL    HW2 5496   2.023   1.212   0.602
 1893SOL     OW 5497   2.534   1.391   1.624
 1893SOL    HW1 5498   2.456   1.341   1.662
 1893SOL    HW2 5499   2.531   1.486   1.655
 1894SOL     OW 5500   3.686   0.192   1.227
 1894SOL    HW1 5501   3.682   0.102   1.271
 1894SOL    HW2 5502   3.689   0.181   1.128
 1895SOL     OW 5503   2.290   0.424   0.520
 1895SOL    HW1 5504   2.320   0.352   0.458
 1895SOL    HW2 5505   2.251   0.384   0.603
 1896SOL     OW 5506   3.567   1.487   1.104
 1896SOL    HW1 5507   3.474   1.462   1.077
 1896SOL    HW2 5508   3.593   1.437   1.186
 1897SOL     OW 5509   2.179   0.547   1.280
 1897SOL    HW1 5510   2.217   0.488   1.352
 1897SOL    HW2 5511   2.219   0.521   1.192
 1898SOL     OW 5512   2.674   1.586   0.687
 1898SOL    HW1 5513   2.706   1.596   0.593
 1898SOL    HW2 5514   2.595   1.524   0.689
 1899SOL     OW 5515   3.286   0.214   1.112
 1899SOL    HW1 5516   3.338   0.149   1.167
 1899SOL    HW2 5517   3.237   0.277   1.173
 1900SOL     OW 5518   2.863   0.034   1.154
 1900SOL    HW1 5519   2.800  -0.038   1.123
 1900SOL    HW2 5520   2.956  -0.002   1.154
 1901SOL     OW 5521   2.632   1.330   0.301
 1901SOL    HW1 5522   2.586   1.243   0.318
 1901SOL    HW2 5523   2.723   1.327   0.342
 1902SOL     OW 5524   2.480   1.567   1.284
 1902SOL    HW1 5525   2.475   1.649   1.341
 1902SOL    HW2 5526   2.569   1.564   1.239
 1903SOL     OW 5527   3.214   0.052   0.168
 1903SOL    HW1 5528   3.249   0.011   0.084
 1903SOL    HW2 5529   3.124   0.014   0.188
 1904SOL     OW 5530   3.162   0.453   0.691
 1904SOL    HW1 5531   3.103   0.533   0.695
 1904SOL    HW2 5532   3.177   0.418   0.784
 1905SOL     OW 5533   3.455   0.221   0.882
 1905SOL    HW1 5534   3.371   0.220   0.936
 1905SOL    HW2 5535   3.457   0.304   0.826
 1906SOL     OW 5536   1.901   1.077   0.300
 1906SOL    HW1 5537   2.000   1.066   0.291
 1906SOL    HW2 5538   1.861   0.991   0.332
 1907SOL     OW 5539   2.737   1.646   0.337
 1907SOL    HW1 5540   2.660   1.611   0.283
 1907SOL    HW2 5541   2.705   1.717   0.399
 1908SOL     OW 5542   2.092   0.628   1.975
 1908SOL    HW1 5543   1.999   0.626   2.012
 1908SOL    HW2 5544   2.093   0.589   1.883
 1909SOL     OW 5545   2.087   0.275   2.858
 1909SOL    HW1 5546   2.122   0.258   2.950
 1909SOL    HW2 5547   1.999   0.230   2.846
 1910SOL     OW 5548   1.881   0.368   2.509
 1910SOL    HW1 5549   1.799   0.411   2.548
 1910SOL    HW2 5550   1.853   0.295   2.446
 1911SOL     OW 5551   2.431   1.275   3.027
 1911SOL    HW1 5552   2.338   1.268   2.990
 1911SOL    HW2 5553   2.442   1.364   3.071
 1912SOL     OW 5554   3.417   1.511   2.565
 1912SOL    HW1 5555   3.360   1.495   2.646
 1912SOL    HW2 5556   3.358   1.521   2.485
 1913SOL     OW 5557   2.997   0.703   2.579
 1913SOL    HW1 5558   3.054   0.781   2.554
 1913SOL    HW2 5559   2.937   0.729   2.655
 1914SOL     OW 5560   3.617   0.607   2.093
 1914SOL    HW1 5561   3.605   0.594   1.994
 1914SOL    HW2 5562   3.587   0.526   2.142
 1915SOL     OW 5563   2.630   1.144   2.885
 1915SOL    HW1 5564   2.552   1.161   2.945
 1915SOL    HW2 5565   2.664   1.231   2.849
 1916SOL     OW 5566   2.712   0.798   3.685
 1916SOL    HW1 5567   2.708   0.874   3.750
 1916SOL    HW2 5568   2.734   0.834   3.594
 1917SOL     OW 5569   2.547   1.012   2.527
 1917SOL    HW1 5570   2.616   0.996   2.597
 1917SOL    HW2 5571   2.474   1.069   2.565
 1918SOL     OW 5572   2.548   1.161   3.665
 1918SOL    HW1 5573   2.608   1.240   3.679
 1918SOL    HW2 5574   2.462   1.192   3.624
 1919SOL     OW 5575   2.197   1.435   2.923
 1919SOL    HW1 5576   2.119   1.404   2.870
 1919SOL    HW2 5577   2.255   1.493   2.866
 1920SOL     OW 5578   3.322   1.505   3.201
 1920SOL    HW1 5579   3.346   1.599   3.227
 1920SOL    HW2 5580   3.306   1.451   3.283
 1921SOL     OW 5581   2.300   0.392   3.361
 1921SOL    HW1 5582   2.382   0.336   3.370
 1921SOL    HW2 5583   2.219   0.334   3.365
 1922SOL     OW 5584   3.465   0.447   2.599
 1922SOL    HW1 5585   3.391   0.493   2.549
 1922SOL    HW2 5586   3.516   0.515   2.652
 1923SOL     OW 5587   2.093   1.713   2.345
 1923SOL    HW1 5588   2.127   1.790   2.399
 1923SOL    HW2 5589   2.137   1.713   2.255
 1924SOL     OW 5590   2.989   1.341   3.552
 1924SOL    HW1 5591   3.036   1.341   3.640
 1924SOL    HW2 5592   2.941   1.254   3.541
 1925SOL     OW 5593   2.092   1.434   2.400
 1925SOL    HW1 5594   2.066   1.530   2.400
 1925SOL    HW2 5595   2.021   1.380   2.445
 1926SOL     OW 5596   2.102   1.091   2.748
 1926SOL    HW1 5597   2.116   1.007   2.800
 1926SOL    HW2 5598   2.047   1.155   2.803
 1927SOL     OW 5599   2.482   1.786   3.301
 1927SOL    HW1 5600   2.390   1.769   3.336
 1927SOL    HW2 5601   2.510   1.878   3.327
 1928SOL     OW 5602   2.468   0.964   1.985
 1928SOL    HW1 5603   2.475   1.048   1.931
 1928SOL    HW2 5604   2.514   0.977   2.073
 1929SOL     OW 5605   3.456   0.114   3.342
 1929SOL    HW1 5606   3.438   0.181   3.270
 1929SOL    HW2 5607   3.453   0.160   3.431
 1930SOL     OW 5608   1.984   0.643   2.425
 1930SOL    HW1 5609   1.939   0.555   2.442
 1930SOL    HW2 5610   1.983   0.697   2.509
 1931SOL     OW 5611   3.704   1.767   2.221
 1931SOL    HW1 5612   3.758   1.738   2.301
 1931SOL    HW2 5613   3.734   1.857   2.192
 1932SOL     OW 5614   1.889   1.596   1.979
 1932SOL    HW1 5615   1.870   1.500   2.000
 1932SOL    HW2 5616   1.856   1.654   2.054
 1933SOL     OW 5617   3.551   0.922   2.474
 1933SOL    HW1 5618   3.646   0.893   2.482
 1933SOL    HW2 5619   3.543   0.987   2.399
 1934SOL     OW 5620   3.503   1.108   2.294
 1934SOL    HW1 5621   3.589   1.110   2.242
 1934SOL    HW2 5622   3.517   1.155   2.382
 1935SOL     OW 5623   1.975   0.737   3.459
 1935SOL    HW1 5624   2.063   0.724   3.504
 1935SOL    HW2 5625   1.962   0.834   3.437
 1936SOL     OW 5626   2.475   1.365   2.588
 1936SOL    HW1 5627   2.426   1.278   2.597
 1936SOL    HW2 5628   2.452   1.408   2.501
 1937SOL     OW 5629   3.155   1.228   3.285
 1937SOL    HW1 5630   3.192   1.155   3.227
 1937SOL    HW2 5631   3.207   1.233   3.370
 1938SOL     OW 5632   2.671   0.004   2.364
 1938SOL    HW1 5633   2.711   0.095   2.355
 1938SOL    HW2 5634   2.571   0.012   2.370
 1939SOL     OW 5635   2.059   0.976   3.126
 1939SOL    HW1 5636   2.148   0.931   3.112
 1939SOL    HW2 5637   1.986   0.911   3.107
 1940SOL     OW 5638   3.387   0.999   2.052
 1940SOL    HW1 5639   3.324   0.923   2.065
 1940SOL    HW2 5640   3.435   1.017   2.138
 1941SOL     OW 5641   3.049   1.792   3.478
 1941SOL    HW1 5642   3.073   1.852   3.402
 1941SOL    HW2 5643   3.056   1.697   3.448
 1942SOL     OW 5644   2.179   0.251   3.663
 1942SOL    HW1 5645   2.250   0.322   3.669
 1942SOL    HW2 5646   2.091   0.290   3.691
 1943SOL     OW 5647   3.328   1.417   2.815
 1943SOL    HW1 5648   3.269   1.423   2.895
 1943SOL    HW2 5649   3.313   1.329   2.769
 1944SOL     OW 5650   3.529   1.714   2.434
 1944SOL    HW1 5651   3.488   1.691   2.346
 1944SOL    HW2 5652   3.511   1.640   2.499
 1945SOL     OW 5653   2.460   0.729   2.132
 1945SOL    HW1 5654   2.484   0.798   2.064
 1945SOL    HW2 5655   2.382   0.762   2.186
 1946SOL     OW 5656   3.143   0.345   2.806
 1946SOL    HW1 5657   3.057   0.295   2.793
 1946SOL    HW2 5658   3.205   0.291   2.862
 1947SOL     OW 5659   3.438   1.662   2.169
 1947SOL    HW1 5660   3.527   1.708   2.172
 1947SOL    HW2 5661   3.417   1.638   2.074
 1948SOL     OW 5662   2.669   0.605   3.327
 1948SOL    HW1 5663   2.622   0.602   3.416
 1948SOL    HW2 5664   2.618   0.550   3.261
 1949SOL     OW 5665   3.256   0.469   3.536
 1949SOL    HW1 5666   3.236   0.512   3.624
 1949SOL    HW2 5667   3.334   0.407   3.545
 1950SOL     OW 5668   2.835   0.890   3.434
 1950SOL    HW1 5669   2.881   0.806   3.405
 1950SOL    HW2 5670   2.779   0.924   3.359
 1951SOL     OW 5671   2.853   0.410   3.104
 1951SOL    HW1 5672   2.776   0.444   3.158
 1951SOL    HW2 5673   2.819   0.359   3.025
 1952SOL     OW 5674   2.903   0.701   2.291
 1952SOL    HW1 5675   2.929   0.697   2.387
 1952SOL    HW2 5676   2.818   0.650   2.277
 1953SOL     OW 5677   1.938   0.811   2.651
 1953SOL    HW1 5678   2.037   0.799   2.660
 1953SOL    HW2 5679   1.914   0.906   2.672
 1954SOL     OW 5680   1.992   1.821   3.433
 1954SOL    HW1 5681   1.982   1.806   3.532
 1954SOL    HW2 5682   1.906   1.857   3.397
 1955SOL     OW 5683   2.727   0.348   2.057
 1955SOL    HW1 5684   2.786   0.411   2.008
 1955SOL    HW2 5685   2.746   0.254   2.028
 1956SOL     OW 5686   3.581   0.585   3.693
 1956SOL    HW1 5687   3.555   0.674   3.657
 1956SOL    HW2 5688   3.579   0.517   3.620
 1957SOL     OW 5689   3.224   1.144   2.407
 1957SOL    HW1 5690   3.307   1.115   2.359
 1957SOL    HW2 5691   3.175   1.211   2.351
 1958SOL     OW 5692   2.412   0.196   2.747
 1958SOL    HW1 5693   2.407   0.191   2.847
 1958SOL    HW2 5694   2.414   0.292   2.718
 1959SOL     OW 5695   2.870   1.456   2.339
 1959SOL    HW1 5696   2.824   1.528   2.287
 1959SOL    HW2 5697   2.866   1.476   2.437
 1960SOL     OW 5698   2.213   1.801   2.715
 1960SOL    HW1 5699   2.263   1.715   2.721
 1960SOL    HW2 5700   2.278   1.878   2.712
 1961SOL     OW 5701   3.657   1.066   2.735
 1961SOL    HW1 5702   3.595   1.051   2.659
 1961SOL    HW2 5703   3.605   1.077   2.820
 1962SOL     OW 5704   3.089   1.550   3.368
 1962SOL    HW1 5705   3.095   1.473   3.432
 1962SOL    HW2 5706   3.037   1.524   3.288
 1963SOL     OW 5707   2.183   0.943   2.104
 1963SOL    HW1 5708   2.265   0.982   2.062
 1963SOL    HW2 5709   2.156   0.861   2.055
 1964SOL     OW 5710   3.320   0.735   2.590
 1964SOL    HW1 5711   3.315   0.670   2.665
 1964SOL    HW2 5712   3.400   0.794   2.603
 1965SOL     OW 5713   2.323   1.266   3.589
 1965SOL    HW1 5714   2.273   1.267   3.503
 1965SOL    HW2 5715   2.260   1.248   3.665
 1966SOL     OW 5716   2.973   1.776   2.099
 1966SOL    HW1 5717   2.913   1.714   2.149
 1966SOL    HW2 5718   3.004   1.732   2.014
 1967SOL     OW 5719   2.064   0.285   3.360
 1967SOL    HW1 5720   1.984   0.345   3.347
 1967SOL    HW2 5721   2.054   0.236   3.446
 1968SOL     OW 5722   3.494   1.377   1.943
 1968SOL    HW1 5723   3.462   1.471   1.933
 1968SOL    HW2 5724   3.418   1.314   1.931
 1969SOL     OW 5725   2.326   1.743   2.185
 1969SOL    HW1 5726   2.359   1.782   2.271
 1969SOL    HW2 5727   2.402   1.736   2.120
 1970SOL     OW 5728   3.262   0.107   2.288
 1970SOL    HW1 5729   3.238   0.070   2.198
 1970SOL    HW2 5730   3.361   0.123   2.292
 1971SOL     OW 5731   2.111   1.785   3.103
 1971SOL    HW1 5732   2.168   1.720   3.153
 1971SOL    HW2 5733   2.095   1.752   3.010
 1972SOL     OW 5734   2.802   1.698   2.766
 1972SOL    HW1 5735   2.882   1.641   2.787
 1972SOL    HW2 5736   2.753   1.658   2.689
 1973SOL     OW 5737   2.244   0.700   2.342
 1973SOL    HW1 5738   2.289   0.610   2.339
 1973SOL    HW2 5739   2.150   0.689   2.375
 1974SOL     OW 5740   3.409   0.222   3.591
 1974SOL    HW1 5741   3.404   0.259   3.683
 1974SOL    HW2 5742   3.337   0.153   3.579
 1975SOL     OW 5743   2.476   0.122   1.979
 1975SOL    HW1 5744   2.574   0.100   1.986
 1975SOL    HW2 5745   2.445   0.105   1.886
 1976SOL     OW 5746   2.643   0.264   3.611
 1976SOL    HW1 5747   2.710   0.203   3.654
 1976SOL    HW2 5748   2.570   0.283   3.676
 1977SOL     OW 5749   2.750   1.514   3.057
 1977SOL    HW1 5750   2.727   1.489   2.963
 1977SOL    HW2 5751   2.811   1.445   3.096
 1978SOL     OW 5752   3.213   0.590   3.295
 1978SOL    HW1 5753   3.241   0.547   3.380
 1978SOL    HW2 5754   3.238   0.686   3.296
 1979SOL     OW 5755   2.665   1.402   2.786
 1979SOL    HW1 5756   2.755   1.416   2.744
 1979SOL    HW2 5757   2.594   1.404   2.715
 1980SOL     OW 5758   2.784   0.503   2.761
 1980SOL    HW1 5759   2.759   0.494   2.665
 1980SOL    HW2 5760   2.832   0.421   2.792
 1981SOL     OW 5761   2.401   0.064   2.374
 1981SOL    HW1 5762   2.320   0.065   2.432
 1981SOL    HW2 5763   2.404   0.147   2.319
 1982SOL     OW 5764   3.296   1.188   1.903
 1982SOL    HW1 5765   3.328   1.112   1.960
 1982SOL    HW2 5766   3.204   1.215   1.933
 1983SOL     OW 5767   2.159   0.035   2.033
 1983SOL    HW1 5768   2.208   0.119   2.012
 1983SOL    HW2 5769   2.221  -0.030   2.078
 1984SOL     OW 5770   2.797   0.236   2.342
 1984SOL    HW1 5771   2.749   0.277   2.264
 1984SOL    HW2 5772   2.896   0.234   2.323
 1985SOL     OW 5773   2.938   0.683   3.326
 1985SOL    HW1 5774   2.858   0.622   3.329
 1985SOL    HW2 5775   3.019   0.630   3.302
 1986SOL     OW 5776   3.089   1.570   2.655
 1986SOL    HW1 5777   3.110   1.644   2.590
 1986SOL    HW2 5778   3.157   1.570   2.728
 1987SOL     OW 5779   2.321   1.152   2.603
 1987SOL    HW1 5780   2.250   1.125   2.668
 1987SOL    HW2 5781   2.295   1.124   2.510
 1988SOL     OW 5782   3.133   1.797   2.453
 1988SOL    HW1 5783   3.177   1.861   2.389
 1988SOL    HW2 5784   3.083   1.849   2.523
 1989SOL     OW 5785   2.894   0.549   1.878
 1989SOL    HW1 5786   2.853   0.631   1.839
 1989SOL    HW2 5787   2.958   0.575   1.951
 1990SOL     OW 5788   1.940   0.556   3.248
 1990SOL    HW1 5789   2.032   0.555   3.207
 1990SOL    HW2 5790   1.934   0.630   3.315
 1991SOL     OW 5791   2.423   0.222   3.009
 1991SOL    HW1 5792   2.461   0.138   3.046
 1991SOL    HW2 5793   2.335   0.241   3.053
 1992SOL     OW 5794   2.728   0.454   2.504
 1992SOL    HW1 5795   2.696   0.526   2.442
 1992SOL    HW2 5796   2.752   0.373   2.451
 1993SOL     OW 5797   2.879   0.039   2.615
 1993SOL    HW1 5798   2.807   0.044   2.546
 1993SOL    HW2 5799   2.855  -0.030   2.684
 1994SOL     OW 5800   3.291   1.173   2.729
 1994SOL    HW1 5801   3.236   1.089   2.722
 1994SOL    HW2 5802   3.317   1.202   2.637
 1995SOL     OW 5803   3.328   0.590   2.854
 1995SOL    HW1 5804   3.298   0.495   2.861
 1995SOL    HW2 5805   3.401   0.606   2.920
 1996SOL     OW 5806   3.719   0.833   2.239
 1996SOL    HW1 5807   3.761   0.769   2.303
 1996SOL    HW2 5808   3.681   0.782   2.161
 1997SOL     OW 5809   2.350   1.385   2.036
 1997SOL    HW1 5810   2.263   1.370   2.083
 1997SOL    HW2 5811   2.333   1.411   1.941
 1998SOL     OW 5812   3.526   1.280   2.519
 1998SOL    HW1 5813   3.625   1.288   2.533
 1998SOL    HW2 5814   3.481   1.364   2.550
 1999SOL     OW 5815   3.252   0.575   1.940
 1999SOL    HW1 5816   3.198   0.554   2.021
 1999SOL    HW2 5817   3.343   0.534   1.949
 2000SOL     OW 5818   2.389   0.256   2.190
 2000SOL    HW1 5819   2.416   0.197   2.115
 2000SOL    HW2 5820   2.389   0.351   2.159
 2001SOL     OW 5821   3.616   1.223   3.450
 2001SOL    HW1 5822   3.707   1.184   3.437
 2001SOL    HW2 5823   3.624   1.319   3.474
 2002SOL     OW 5824   2.926   1.347   3.202
 2002SOL    HW1 5825   2.846   1.324   3.257
 2002SOL    HW2 5826   3.009   1.321   3.251
 2003SOL     OW 5827   3.454   1.629   3.487
 2003SOL    HW1 5828   3.481   1.663   3.397
 2003SOL    HW2 5829   3.533   1.591   3.533
 2004SOL     OW 5830   2.973   1.195   2.962
 2004SOL    HW1 5831   2.933   1.239   3.043
 2004SOL    HW2 5832   2.932   1.232   2.879
 2005SOL     OW 5833   3.500   1.099   2.941
 2005SOL    HW1 5834   3.505   1.180   3.000
 2005SOL    HW2 5835   3.414   1.101   2.890
 2006SOL     OW 5836   2.777   0.089   3.264
 2006SOL    HW1 5837   2.802   0.069   3.169
 2006SOL    HW2 5838   2.849   0.145   3.306
 2007SOL     OW 5839   2.842   1.116   3.581
 2007SOL    HW1 5840   2.743   1.122   3.591
 2007SOL    HW2 5841   2.865   1.036   3.525
 2008SOL     OW 5842   2.567   1.050   2.230
 2008SOL    HW1 5843   2.553   1.057   2.329
 2008SOL    HW2 5844   2.651   0.999   2.212
 2009SOL     OW 5845   2.272   0.813   3.113
 2009SOL    HW1 5846   2.358   0.825   3.163
 2009SOL    HW2 5847   2.230   0.726   3.140
 2010SOL     OW 5848   3.136   0.386   3.124
 2010SOL    HW1 5849   3.157   0.460   3.188
 2010SOL    HW2 5850   3.047   0.403   3.081
 2011SOL     OW 5851   1.926   1.564   3.193
 2011SOL    HW1 5852   1.880   1.646   3.159
 2011SOL    HW2 5853   2.024   1.583   3.202
 2012SOL     OW 5854   2.229   1.100   2.363
 2012SOL    HW1 5855   2.222   1.183   2.307
 2012SOL    HW2 5856   2.233   1.020   2.303
 2013SOL     OW 5857   2.428   0.537   2.727
 2013SOL    HW1 5858   2.440   0.603   2.653
 2013SOL    HW2 5859   2.474   0.571   2.810
 2014SOL     OW 5860   3.114   1.348   2.250
 2014SOL    HW1 5861   3.164   1.425   2.290
 2014SOL    HW2 5862   3.019   1.350   2.282
 2015SOL     OW 5863   3.134   1.445   3.004
 2015SOL    HW1 5864   3.181   1.458   3.091
 2015SOL    HW2 5865   3.068   1.371   3.013
 2016SOL     OW 5866   3.444   0.639   2.334
 2016SOL    HW1 5867   3.413   0.700   2.407
 2016SOL    HW2 5868   3.494   0.691   2.265
 2017SOL     OW 5869   2.216   1.510   3.191
 2017SOL    HW1 5870   2.195   1.466   3.104
 2017SOL    HW2 5871   2.313   1.536   3.194
 2018SOL     OW 5872   2.264   0.751   3.460
 2018SOL    HW1 5873   2.332   0.806   3.413
 2018SOL    HW2 5874   2.304   0.663   3.487
 2019SOL     OW 5875   3.449   0.779   3.532
 2019SOL    HW1 5876   3.357   0.817   3.527
 2019SOL    HW2 5877   3.509   0.826   3.467
 2020SOL     OW 5878   2.875   0.105   3.632
 2020SOL    HW1 5879   2.881   0.190   3.580
 2020SOL    HW2 5880   2.907   0.029   3.575
 2021SOL     OW 5881   2.366   0.050   3.602
 2021SOL    HW1 5882   2.324  -0.007   3.532
 2021SOL    HW2 5883   2.300   0.119   3.634
 2022SOL     OW 5884   2.435   0.870   2.891
 2022SOL    HW1 5885   2.479   0.959   2.882
 2022SOL    HW2 5886   2.372   0.870   2.968
 2023SOL     OW 5887   3.222   0.862   2.907
 2023SOL    HW1 5888   3.147   0.862   2.841
 2023SOL    HW2 5889   3.259   0.770   2.916
 2024SOL     OW 5890   3.071   0.525   2.137
 2024SOL    HW1 5891   3.084   0.441   2.191
 2024SOL    HW2 5892   3.042   0.599   2.197
 2025SOL     OW 5893   2.169   0.213   3.093
 2025SOL    HW1 5894   2.146   0.250   3.183
 2025SOL    HW2 5895   2.139   0.118   3.087
 2026SOL     OW 5896   1.899   1.310   3.144
 2026SOL    HW1 5897   1.952   1.261   3.212
 2026SOL    HW2 5898   1.921   1.408   3.149
 2027SOL     OW 5899   2.594   0.634   2.926
 2027SOL    HW1 5900   2.653   0.608   2.850
 2027SOL    HW2 5901   2.566   0.730   2.915
 2028SOL     OW 5902   3.590   0.935   3.716
 2028SOL    HW1 5903   3.544   0.928   3.627
 2028SOL    HW2 5904   3.528   0.979   3.782
 2029SOL     OW 5905   2.169   0.063   2.480
 2029SOL    HW1 5906   2.158   0.157   2.513
 2029SOL    HW2 5907   2.164   0.000   2.557
 2030SOL     OW 5908   3.484   0.367   2.236
 2030SOL    HW1 5909   3.486   0.291   2.300
 2030SOL    HW2 5910   3.436   0.444   2.276
 2031SOL     OW 5911   2.885   0.766   2.828
 2031SOL    HW1 5912   2.900   0.787   2.924
 2031SOL    HW2 5913   2.855   0.671   2.819
 2032SOL     OW 5914   2.842   1.573   3.562
 2032SOL    HW1 5915   2.822   1.617   3.474
 2032SOL    HW2 5916   2.881   1.482   3.546
 2033SOL     OW 5917   3.721   1.518   3.467
 2033SOL    HW1 5918   3.735   1.545   3.372
 2033SOL    HW2 5919   3.804   1.540   3.520
 2034SOL     OW 5920   2.212   0.898   3.666
 2034SOL    HW1 5921   2.288   0.942   3.714
 2034SOL    HW2 5922   2.247   0.851   3.584
 2035SOL     OW 5923   3.402   0.274   1.987
 2035SOL    HW1 5924   3.341   0.199   2.010
 2035SOL    HW2 5925   3.424   0.326   2.070
 2036SOL     OW 5926   3.165   0.838   1.904
 2036SOL    HW1 5927   3.199   0.745   1.919
 2036SOL    HW2 5928   3.183   0.865   1.809
 2037SOL     OW 5929   2.930   1.333   2.711
 2037SOL    HW1 5930   2.937   1.249   2.656
 2037SOL    HW2 5931   2.992   1.402   2.675
 2038SOL     OW 5932   2.181   0.810   2.811
 2038SOL    HW1 5933   2.274   0.846   2.816
 2038SOL    HW2 5934   2.175   0.725   2.863
 2039SOL     OW 5935   2.201   0.509   2.868
 2039SOL    HW1 5936   2.149   0.426   2.851
 2039SOL    HW2 5937   2.278   0.514   2.804
 2040SOL     OW 5938   3.000   0.380   3.540
 2040SOL    HW1 5939   2.955   0.443   3.604
 2040SOL    HW2 5940   3.093   0.411   3.523
 2041SOL     OW 5941   3.022   0.207   3.339
 2041SOL    HW1 5942   3.022   0.271   3.416
 2041SOL    HW2 5943   3.050   0.255   3.256
 2042SOL     OW 5944   1.870   1.326   2.062
 2042SOL    HW1 5945   1.777   1.347   2.031
 2042SOL    HW2 5946   1.880   1.227   2.075
 2043SOL     OW 5947   1.950   1.801   2.789
 2043SOL    HW1 5948   1.908   1.715   2.762
 2043SOL    HW2 5949   2.044   1.804   2.755
 2044SOL     OW 5950   2.366   1.568   2.772
 2044SOL    HW1 5951   2.432   1.642   2.781
 2044SOL    HW2 5952   2.410   1.489   2.730
 2045SOL     OW 5953   2.864   0.796   3.100
 2045SOL    HW1 5954   2.905   0.764   3.186
 2045SOL    HW2 5955   2.768   0.769   3.097
 2046SOL     OW 5956   1.902   0.544   2.976
 2046SOL    HW1 5957   1.987   0.511   2.935
 2046SOL    HW2 5958   1.915   0.559   3.074
 2047SOL     OW 5959   2.051   0.520   3.584
 2047SOL    HW1 5960   2.110   0.480   3.514
 2047SOL    HW2 5961   1.993   0.591   3.543
 2048SOL     OW 5962   3.231   0.950   3.522
 2048SOL    HW1 5963   3.270   1.039   3.542
 2048SOL    HW2 5964   3.241   0.930   3.425
 2049SOL     OW 5965   2.677   0.572   2.187
 2049SOL    HW1 5966   2.684   0.483   2.141
 2049SOL    HW2 5967   2.583   0.606   2.179
 2050SOL     OW 5968   3.519   0.604   3.068
 2050SOL    HW1 5969   3.481   0.535   3.130
 2050SOL    HW2 5970   3.601   0.568   3.024
 2051SOL     OW 5971   2.114   1.564   3.606
 2051SOL    HW1 5972   2.084   1.621   3.682
 2051SOL    HW2 5973   2.107   1.467   3.632
 2052SOL     OW 5974   2.533   0.464   3.131
 2052SOL    HW1 5975   2.499   0.375   3.101
 2052SOL    HW2 5976   2.559   0.518   3.051
 2053SOL     OW 5977   2.792   1.678   3.327
 2053SOL    HW1 5978   2.768   1.660   3.232
 2053SOL    HW2 5979   2.822   1.772   3.337
 2054SOL     OW 5980   2.335   0.500   2.053
 2054SOL    HW1 5981   2.396   0.580   2.057
 2054SOL    HW2 5982   2.240   0.531   2.060
 2055SOL     OW 5983   2.021   1.137   3.328
 2055SOL    HW1 5984   2.043   1.076   3.404
 2055SOL    HW2 5985   2.031   1.088   3.242
 2056SOL     OW 5986   3.209   1.059   3.096
 2056SOL    HW1 5987   3.233   0.996   3.022
 2056SOL    HW2 5988   3.119   1.099   3.078
 2057SOL     OW 5989   3.164   0.855   2.171
 2057SOL    HW1 5990   3.078   0.824   2.213
 2057SOL    HW2 5991   3.160   0.841   2.072
 2058SOL     OW 5992   3.621   1.747   3.016
 2058SOL    HW1 5993   3.682   1.777   2.943
 2058SOL    HW2 5994   3.583   1.658   2.994
 2059SOL     OW 5995   3.114   1.731   2.990
 2059SOL    HW1 5996   3.198   1.736   2.936
 2059SOL    HW2 5997   3.091   1.635   3.008
 2060SOL     OW 5998   1.945   1.258   2.884
 2060SOL    HW1 5999   1.940   1.257   2.984
 2060SOL    HW2 6000   1.862   1.217   2.846
 2061SOL     OW 6001   2.550   1.662   3.578
 2061SOL    HW1 6002   2.494   1.743   3.587
 2061SOL    HW2 6003   2.602   1.666   3.492
 2062SOL     OW 6004   3.588   0.135   2.385
 2062SOL    HW1 6005   3.661   0.118   2.318
 2062SOL    HW2 6006   3.557   0.048   2.423
 2063SOL     OW 6007   3.250   1.573   2.339
 2063SOL    HW1 6008   3.317   1.585   2.265
 2063SOL    HW2 6009   3.210   1.662   2.362
 2064SOL     OW 6010   1.992   1.794   3.713
 2064SOL    HW1 6011   1.951   1.720   3.766
 2064SOL    HW2 6012   2.056   1.845   3.771
 2065SOL     OW 6013   3.142   0.927   2.534
 2065SOL    HW1 6014   3.202   0.846   2.536
 2065SOL    HW2 6015   3.182   0.996   2.474
 2066SOL     OW 6016   2.692   1.273   3.284
 2066SOL    HW1 6017   2.687   1.306   3.379
 2066SOL    HW2 6018   2.606   1.292   3.238
 2067SOL     OW 6019   2.534   1.616   2.016
 2067SOL    HW1 6020   2.543   1.626   1.917
 2067SOL    HW2 6021   2.494   1.527   2.037
 2068SOL     OW 6022   3.512   1.720   3.256
 2068SOL    HW1 6023   3.565   1.730   3.172
 2068SOL    HW2 6024   3.485   1.810   3.290
 2069SOL     OW 6025   3.703   0.175   2.825
 2069SOL    HW1 6026   3.742   0.090   2.789
 2069SOL    HW2 6027   3.605   0.177   2.806
 2070SOL     OW 6028   2.125   0.326   2.582
 2070SOL    HW1 6029   2.046   0.377   2.548
 2070SOL    HW2 6030   2.116   0.311   2.680
 2071SOL     OW 6031   3.056   1.612   1.893
 2071SOL    HW1 6032   3.062   1.519   1.930
 2071SOL    HW2 6033   2.997   1.612   1.813
 2072SOL     OW 6034   2.684   1.002   3.234
 2072SOL    HW1 6035   2.724   1.001   3.142
 2072SOL    HW2 6036   2.694   1.094   3.274
 2073SOL     OW 6037   2.778   0.910   2.153
 2073SOL    HW1 6038   2.841   0.948   2.085
 2073SOL    HW2 6039   2.818   0.827   2.192
 2074SOL     OW 6040   3.366   1.607   1.906
 2074SOL    HW1 6041   3.274   1.644   1.913
 2074SOL    HW2 6042   3.404   1.627   1.816
 2075SOL     OW 6043   2.234   1.288   3.352
 2075SOL    HW1 6044   2.221   1.381   3.318
 2075SOL    HW2 6045   2.150   1.236   3.339
 2076SOL     OW 6046   3.476   1.292   3.151
 2076SOL    HW1 6047   3.536   1.295   3.231
 2076SOL    HW2 6048   3.401   1.356   3.164
 2077SOL     OW 6049   2.901   1.098   2.558
 2077SOL    HW1 6050   2.831   1.051   2.612
 2077SOL    HW2 6051   2.960   1.030   2.515
 2078SOL     OW 6052   2.876   0.236   2.833
 2078SOL    HW1 6053   2.868   0.200   2.740
 2078SOL    HW2 6054   2.874   0.160   2.898
 2079SOL     OW 6055   2.452   1.487   2.353
 2079SOL    HW1 6056   2.494   1.429   2.283
 2079SOL    HW2 6057   2.408   1.566   2.309
 2080SOL     OW 6058   3.571   0.385   3.243
 2080SOL    HW1 6059   3.644   0.454   3.247
 2080SOL    HW2 6060   3.599   0.310   3.184
 2081SOL     OW 6061   2.117   1.348   2.152
 2081SOL    HW1 6062   2.021   1.349   2.125
 2081SOL    HW2 6063   2.129   1.401   2.236
 2082SOL     OW 6064   1.967   1.013   3.588
 2082SOL    HW1 6065   1.890   0.980   3.642
 2082SOL    HW2 6066   2.052   0.983   3.630
 2083SOL     OW 6067   2.534   0.203   3.351
 2083SOL    HW1 6068   2.624   0.187   3.311
 2083SOL    HW2 6069   2.542   0.208   3.450
 2084SOL     OW 6070   1.937   0.345   1.895
 2084SOL    HW1 6071   1.845   0.317   1.866
 2084SOL    HW2 6072   1.968   0.422   1.839
 2085SOL     OW 6073   3.302   0.856   3.260
 2085SOL    HW1 6074   3.245   0.908   3.197
 2085SOL    HW2 6075   3.398   0.868   3.236
 2086SOL     OW 6076   1.934   0.166   2.180
 2086SOL    HW1 6077   1.917   0.249   2.126
 2086SOL    HW2 6078   2.024   0.129   2.158
 2087SOL     OW 6079   3.045   1.335   1.981
 2087SOL    HW1 6080   2.946   1.324   1.983
 2087SOL    HW2 6081   3.079   1.350   2.074
 2088SOL     OW 6082   2.475   0.842   3.293
 2088SOL    HW1 6083   2.531   0.923   3.276
 2088SOL    HW2 6084   2.534   0.762   3.296
 2089SOL     OW 6085   3.355   1.767   2.821
 2089SOL    HW1 6086   3.388   1.831   2.752
 2089SOL    HW2 6087   3.421   1.761   2.896
 2090SOL     OW 6088   2.578   0.565   3.570
 2090SOL    HW1 6089   2.597   0.630   3.644
 2090SOL    HW2 6090   2.638   0.485   3.579
 2091SOL     OW 6091   3.312   1.220   3.495
 2091SOL    HW1 6092   3.303   1.210   3.594
 2091SOL    HW2 6093   3.408   1.213   3.469
 2092SOL     OW 6094   2.252   1.741   3.422
 2092SOL    HW1 6095   2.161   1.782   3.420
 2092SOL    HW2 6096   2.245   1.647   3.454
 2093SOL     OW 6097   3.536   0.883   3.116
 2093SOL    HW1 6098   3.509   0.794   3.079
 2093SOL    HW2 6099   3.537   0.951   3.043
 2094SOL     OW 6100   3.087   0.325   2.311
 2094SOL    HW1 6101   3.152   0.251   2.300
 2094SOL    HW2 6102   3.107   0.375   2.395
 2095SOL     OW 6103   2.456   0.745   2.514
 2095SOL    HW1 6104   2.506   0.830   2.495
 2095SOL    HW2 6105   2.368   0.747   2.466
 2096SOL     OW 6106   3.639   0.342   3.504
 2096SOL    HW1 6107   3.622   0.373   3.410
 2096SOL    HW2 6108   3.555   0.305   3.542
 2097SOL     OW 6109   3.592   0.934   3.379
 2097SOL    HW1 6110   3.630   1.025   3.394
 2097SOL    HW2 6111   3.584   0.917   3.280
 2098SOL     OW 6112   2.721   1.374   1.878
 2098SOL    HW1 6113   2.675   1.389   1.966
 2098SOL    HW2 6114   2.765   1.459   1.848
 2099SOL     OW 6115   2.523   1.790   2.815
 2099SOL    HW1 6116   2.477   1.878   2.802
 2099SOL    HW2 6117   2.622   1.802   2.808
 2100SOL     OW 6118   2.721   0.956   2.723
 2100SOL    HW1 6119   2.775   0.887   2.771
 2100SOL    HW2 6120   2.689   1.025   2.789
 2101SOL     OW 6121   2.945   0.984   1.949
 2101SOL    HW1 6122   2.922   1.037   1.867
 2101SOL    HW2 6123   3.026   0.928   1.930
 2102SOL     OW 6124   3.723   1.569   2.713
 2102SOL    HW1 6125   3.652   1.557   2.643
 2102SOL    HW2 6126   3.724   1.490   2.773
 2103SOL     OW 6127   2.083   1.314   3.706
 2103SOL    HW1 6128   2.018   1.241   3.685
 2103SOL    HW2 6129   2.087   1.328   3.804
 2104SOL     OW 6130   1.941   1.240   2.515
 2104SOL    HW1 6131   1.940   1.193   2.603
 2104SOL    HW2 6132   2.023   1.212   2.464
 2105SOL     OW 6133   2.534   1.391   3.486
 2105SOL    HW1 6134   2.456   1.341   3.524
 2105SOL    HW2 6135   2.531   1.486   3.517
 2106SOL     OW 6136   3.686   0.192   3.089
 2106SOL    HW1 6137   3.682   0.102   3.133
 2106SOL    HW2 6138   3.689   0.181   2.990
 2107SOL     OW 6139   2.290   0.424   2.382
 2107SOL    HW1 6140   2.320   0.352   2.320
 2107SOL    HW2 6141   2.251   0.384   2.465
 2108SOL     OW 6142   3.567   1.487   2.966
 2108SOL    HW1 6143   3.474   1.462   2.939
 2108SOL    HW2 6144   3.593   1.437   3.048
 2109SOL     OW 6145   2.179   0.547   3.142
 2109SOL    HW1 6146   2.217   0.488   3.214
 2109SOL    HW2 6147   2.219   0.521   3.054
 2110SOL     OW 6148   2.674   1.586   2.549
 2110SOL    HW1 6149   2.706   1.596   2.455
 2110SOL    HW2 6150   2.595   1.524   2.551
 2111SOL     OW 6151   3.286   0.214   2.974
 2111SOL    HW1 6152   3.338   0.149   3.029
 2111SOL    HW2 6153   3.237   0.277   3.035
 2112SOL     OW 6154   2.863   0.034   3.016
 2112SOL    HW1 6155   2.800  -0.038   2.985
 2112SOL    HW2 6156   2.956  -0.002   3.016
 2113SOL     OW 6157   2.632   1.330   2.163
 2113SOL    HW1 6158   2.586   1.243   2.180
 2113SOL    HW2 6159   2.723   1.327   2.204
 2114SOL     OW 6160   2.480   1.567   3.146
 2114SOL    HW1 6161   2.475   1.649   3.203
 2114SOL    HW2 6162   2.569   1.564   3.101
 2115SOL     OW 6163   3.214   0.052   2.030
 2115SOL    HW1 6164   3.249   0.011   1.946
 2115SOL    HW2 6165   3.124   0.014   2.050
 2116SOL     OW 6166   3.162   0.453   2.553
 2116SOL    HW1 6167   3.103   0.533   2.557
 2116SOL    HW2 6168   3.177   0.418   2.646
 2117SOL     OW 6169   3.455   0.221   2.744
 2117SOL    HW1 6170   3.371   0.220   2.798
 2117SOL    HW2 6171   3.457   0.304   2.688
 2118SOL     OW 6172   1.901   1.077   2.162
 2118SOL    HW1 6173   2.000   1.066   2.153
 2118SOL    HW2 6174   1.861   0.991   2.194
 2119SOL     OW 6175   2.737   1.646   2.199
 2119SOL    HW1 6176   2.660   1.611   2.145
 2119SOL    HW2 6177   2.705   1.717   2.261
 2120SOL     OW 6178   2.092   0.628   3.837
 2120SOL    HW1 6179   1.999   0.626   3.874
 2120SOL    HW2 6180   2.093   0.589   3.745
 2121SOL     OW 6181   2.087   0.275   4.720
 2121SOL    HW1 6182   2.122   0.258   4.812
 2121SOL    HW2 6183   1.999   0.230   4.708
 2122SOL     OW 6184   1.881   0.368   4.371
 2122SOL    HW1 6185   1.799   0.411   4.410
 2122SOL    HW2 6186   1.853   0.295   4.308
 2123SOL     OW 6187   2.431   1.275   4.889
 2123SOL    HW1 6188   2.338   1.268   4.852
 2123SOL    HW2 6189   2.442   1.364   4.933
 2124SOL     OW 6190   3.417   1.511   4.427
 2124SOL    HW1 6191   3.360   1.495   4.508
 2124SOL    HW2 6192   3.358   1.521   4.347
 2125SOL     OW 6193   2.997   0.703   4.441
 2125SOL    HW1 6194   3.054   0.781   4.416
 2125SOL    HW2 6195   2.937   0.729   4.517
 2126SOL     OW 6196   3.617   0.607   3.955
 2126SOL    HW1 6197   3.605   0.594   3.856
 2126SOL    HW2 6198   3.587   0.526   4.004
 2127SOL     OW 6199   2.630   1.144   4.747
 2127SOL    HW1 6200   2.552   1.161   4.807
 2127SOL    HW2 6201   2.664   1.231   4.711
 2128SOL     OW 6202   2.547   1.012   4.389
 2128SOL    HW1 6203   2.616   0.996   4.459
 2128SOL    HW2 6204   2.474   1.069   4.427
 2129SOL     OW 6205   2.197   1.435   4.785
 2129SOL    HW1 6206   2.119   1.404   4.732
 2129SOL    HW2 6207   2.255   1.493   4.728
 2130SOL     OW 6208   3.465   0.447   4.461
 2130SOL    HW1 6209   3.391   0.493   4.411
 2130SOL    HW2 6210   3.516   0.515   4.514
 2131SOL     OW 6211   2.093   1.713   4.207
 2131SOL    HW1 6212   2.127   1.790   4.261
 2131SOL    HW2 6213   2.137   1.713   4.117
 2132SOL     OW 6214   2.092   1.434   4.262
 2132SOL    HW1 6215   2.066   1.530   4.262
 2132SOL    HW2 6216   2.021   1.380   4.307
 2133SOL     OW 6217   2.102   1.091   4.610
 2133SOL    HW1 6218   2.116   1.007   4.662
 2133SOL    HW2 6219   2.047   1.155   4.665
 2134SOL     OW 6220   2.482   1.786   5.163
 2134SOL    HW1 6221   2.390   1.769   5.198
 2134SOL    HW2 6222   2.510   1.878   5.189
 2135SOL     OW 6223   2.468   0.964   3.847
 2135SOL    HW1 6224   2.475   1.048   3.793
 2135SOL    HW2 6225   2.514   0.977   3.935
 2136SOL     OW 6226   1.984   0.643   4.287
 2136SOL    HW1 6227   1.939   0.555   4.304
 2136SOL    HW2 6228   1.983   0.697   4.371
 2137SOL     OW 6229   3.704   1.767   4.083
 2137SOL    HW1 6230   3.758   1.738   4.163
 2137SOL    HW2 6231   3.734   1.857   4.054
 2138SOL     OW 6232   1.889   1.596   3.841
 2138SOL    HW1 6233   1.870   1.500   3.862
 2138SOL    HW2 6234   1.856   1.654   3.916
 2139SOL     OW 6235   3.551   0.922   4.336
 2139SOL    HW1 6236   3.646   0.893   4.344
 2139SOL    HW2 6237   3.543   0.987   4.261
 2140SOL     OW 6238   3.503   1.108   4.156
 2140SOL    HW1 6239   3.589   1.110   4.104
 2140SOL    HW2 6240   3.517   1.155   4.244
 2141SOL     OW 6241   2.475   1.365   4.450
 2141SOL    HW1 6242   2.426   1.278   4.459
 2141SOL    HW2 6243   2.452   1.408   4.363
 2142SOL     OW 6244   2.671   0.004   4.226
 2142SOL    HW1 6245   2.711   0.095   4.217
 2142SOL    HW2 6246   2.571   0.012   4.232
 2143SOL     OW 6247   2.059   0.976   4.988
 2143SOL    HW1 6248   2.148   0.931   4.974
 2143SOL    HW2 6249   1.986   0.911   4.969
 2144SOL     OW 6250   3.387   0.999   3.914
 2144SOL    HW1 6251   3.324   0.923   3.927
 2144SOL    HW2 6252   3.435   1.017   4.000
 2145SOL     OW 6253   3.328   1.417   4.677
 2145SOL    HW1 6254   3.269   1.423   4.757
 2145SOL    HW2 6255   3.313   1.329   4.631
 2146SOL     OW 6256   3.529   1.714   4.296
 2146SOL    HW1 6257   3.488   1.691   4.208
 2146SOL    HW2 6258   3.511   1.640   4.361
 2147SOL     OW 6259   2.460   0.729   3.994
 2147SOL    HW1 6260   2.484   0.798   3.926
 2147SOL    HW2 6261   2.382   0.762   4.048
 2148SOL     OW 6262   3.143   0.345   4.668
 2148SOL    HW1 6263   3.057   0.295   4.655
 2148SOL    HW2 6264   3.205   0.291   4.724
 2149SOL     OW 6265   3.438   1.662   4.031
 2149SOL    HW1 6266   3.527   1.708   4.034
 2149SOL    HW2 6267   3.417   1.638   3.936
 2150SOL     OW 6268   2.853   0.410   4.966
 2150SOL    HW1 6269   2.776   0.444   5.020
 2150SOL    HW2 6270   2.819   0.359   4.887
 2151SOL     OW 6271   2.903   0.701   4.153
 2151SOL    HW1 6272   2.929   0.697   4.249
 2151SOL    HW2 6273   2.818   0.650   4.139
 2152SOL     OW 6274   1.938   0.811   4.513
 2152SOL    HW1 6275   2.037   0.799   4.522
 2152SOL    HW2 6276   1.914   0.906   4.534
 2153SOL     OW 6277   2.727   0.348   3.919
 2153SOL    HW1 6278   2.786   0.411   3.870
 2153SOL    HW2 6279   2.746   0.254   3.890
 2154SOL     OW 6280   3.224   1.144   4.269
 2154SOL    HW1 6281   3.307   1.115   4.221
 2154SOL    HW2 6282   3.175   1.211   4.213
 2155SOL     OW 6283   2.412   0.196   4.609
 2155SOL    HW1 6284   2.407   0.191   4.709
 2155SOL    HW2 6285   2.414   0.292   4.580
 2156SOL     OW 6286   2.870   1.456   4.201
 2156SOL    HW1 6287   2.824   1.528   4.149
 2156SOL    HW2 6288   2.866   1.476   4.299
 2157SOL     OW 6289   2.213   1.801   4.577
 2157SOL    HW1 6290   2.263   1.715   4.583
 2157SOL    HW2 6291   2.278   1.878   4.574
 2158SOL     OW 6292   3.657   1.066   4.597
 2158SOL    HW1 6293   3.595   1.051   4.521
 2158SOL    HW2 6294   3.605   1.077   4.682
 2159SOL     OW 6295   2.183   0.943   3.966
 2159SOL    HW1 6296   2.265   0.982   3.924
 2159SOL    HW2 6297   2.156   0.861   3.917
 2160SOL     OW 6298   3.320   0.735   4.452
 2160SOL    HW1 6299   3.315   0.670   4.527
 2160SOL    HW2 6300   3.400   0.794   4.465
 2161SOL     OW 6301   2.973   1.776   3.961
 2161SOL    HW1 6302   2.913   1.714   4.011
 2161SOL    HW2 6303   3.004   1.732   3.876
 2162SOL     OW 6304   3.494   1.377   3.805
 2162SOL    HW1 6305   3.462   1.471   3.795
 2162SOL    HW2 6306   3.418   1.314   3.793
 2163SOL     OW 6307   2.326   1.743   4.047
 2163SOL    HW1 6308   2.359   1.782   4.133
 2163SOL    HW2 6309   2.402   1.736   3.982
 2164SOL     OW 6310   3.262   0.107   4.150
 2164SOL    HW1 6311   3.238   0.070   4.060
 2164SOL    HW2 6312   3.361   0.123   4.154
 2165SOL     OW 6313   2.111   1.785   4.965
 2165SOL    HW1 6314   2.168   1.720   5.015
 2165SOL    HW2 6315   2.095   1.752   4.872
 2166SOL     OW 6316   2.802   1.698   4.628
 2166SOL    HW1 6317   2.882   1.641   4.649
 2166SOL    HW2 6318   2.753   1.658   4.551
 2167SOL     OW 6319   2.244   0.700   4.204
 2167SOL    HW1 6320   2.289   0.610   4.201
 2167SOL    HW2 6321   2.150   0.689   4.237
 2168SOL     OW 6322   2.476   0.122   3.841
 2168SOL    HW1 6323   2.574   0.100   3.848
 2168SOL    HW2 6324   2.445   0.105   3.748
 2169SOL     OW 6325   2.665   1.402   4.648
 2169SOL    HW1 6326   2.755   1.416   4.606
 2169SOL    HW2 6327   2.594   1.404   4.577
 2170SOL     OW 6328   2.784   0.503   4.623
 2170SOL    HW1 6329   2.759   0.494   4.527
 2170SOL    HW2 6330   2.832   0.421   4.654
 2171SOL     OW 6331   2.401   0.064   4.236
 2171SOL    HW1 6332   2.320   0.065   4.294
 2171SOL    HW2 6333   2.404   0.147   4.181
 2172SOL     OW 6334   3.296   1.188   3.765
 2172SOL    HW1 6335   3.328   1.112   3.822
 2172SOL    HW2 6336   3.204   1.215   3.795
 2173SOL     OW 6337   2.159   0.035   3.895
 2173SOL    HW1 6338   2.208   0.119   3.874
 2173SOL    HW2 6339   2.221  -0.030   3.940
 2174SOL     OW 6340   2.797   0.236   4.204
 2174SOL    HW1 6341   2.749   0.277   4.126
 2174SOL    HW2 6342   2.896   0.234   4.185
 2175SOL     OW 6343   3.089   1.570   4.517
 2175SOL    HW1 6344   3.110   1.644   4.452
 2175SOL    HW2 6345   3.157   1.570   4.590
 2176SOL     OW 6346   2.321   1.152   4.465
 2176SOL    HW1 6347   2.250   1.125   4.530
 2176SOL    HW2 6348   2.295   1.124   4.372
 2177SOL     OW 6349   3.133   1.797   4.315
 2177SOL    HW1 6350   3.177   1.861   4.251
 2177SOL    HW2 6351   3.083   1.849   4.385
 2178SOL     OW 6352   2.894   0.549   3.740
 2178SOL    HW1 6353   2.853   0.631   3.701
 2178SOL    HW2 6354   2.958   0.575   3.813
 2179SOL     OW 6355   2.423   0.222   4.871
 2179SOL    HW1 6356   2.461   0.138   4.908
 2179SOL    HW2 6357   2.335   0.241   4.915
 2180SOL     OW 6358   2.728   0.454   4.366
 2180SOL    HW1 6359   2.696   0.526   4.304
 2180SOL    HW2 6360   2.752   0.373   4.313
 2181SOL     OW 6361   2.879   0.039   4.477
 2181SOL    HW1 6362   2.807   0.044   4.408
 2181SOL    HW2 6363   2.855  -0.030   4.546
 2182SOL     OW 6364   3.291   1.173   4.591
 2182SOL    HW1 6365   3.236   1.089   4.584
 2182SOL    HW2 6366   3.317   1.202   4.499
 2183SOL     OW 6367   3.328   0.590   4.716
 2183SOL    HW1 6368   3.298   0.495   4.723
 2183SOL    HW2 6369   3.401   0.606   4.782
 2184SOL     OW 6370   3.719   0.833   4.101
 2184SOL    HW1 6371   3.761   0.769   4.165
 2184SOL    HW2 6372   3.681   0.782   4.023
 2185SOL     OW 6373   2.350   1.385   3.898
 2185SOL    HW1 6374   2.263   1.370   3.945
 2185SOL    HW2 6375   2.333   1.411   3.803
 2186SOL     OW 6376   3.526   1.280   4.381
 2186SOL    HW1 6377   3.625   1.288   4.395
 2186SOL    HW2 6378   3.481   1.364   4.412
 2187SOL     OW 6379   3.252   0.575   3.802
 2187SOL    HW1 6380   3.198   0.554   3.883
 2187SOL    HW2 6381   3.343   0.534   3.811
 2188SOL     OW 6382   2.389   0.256   4.052
 2188SOL    HW1 6383   2.416   0.197   3.977
 2188SOL    HW2 6384   2.389   0.351   4.021
 2189SOL     OW 6385   2.973   1.195   4.824
 2189SOL    HW1 6386   2.933   1.239   4.905
 2189SOL    HW2 6387   2.932   1.232   4.741
 2190SOL     OW 6388   3.500   1.099   4.803
 2190SOL    HW1 6389   3.505   1.180   4.862
 2190SOL    HW2 6390   3.414   1.101   4.752
 2191SOL     OW 6391   2.567   1.050   4.092
 2191SOL    HW1 6392   2.553   1.057   4.191
 2191SOL    HW2 6393   2.651   0.999   4.074
 2192SOL     OW 6394   2.272   0.813   4.975
 2192SOL    HW1 6395   2.358   0.825   5.025
 2192SOL    HW2 6396   2.230   0.726   5.002
 2193SOL     OW 6397   3.136   0.386   4.986
 2193SOL    HW1 6398   3.157   0.460   5.050
 2193SOL    HW2 6399   3.047   0.403   4.943
 2194SOL     OW 6400   2.229   1.100   4.225
 2194SOL    HW1 6401   2.222   1.183   4.169
 2194SOL    HW2 6402   2.233   1.020   4.165
 2195SOL     OW 6403   2.428   0.537   4.589
 2195SOL    HW1 6404   2.440   0.603   4.515
 2195SOL    HW2 6405   2.474   0.571   4.672
 2196SOL     OW 6406   3.114   1.348   4.112
 2196SOL    HW1 6407   3.164   1.425   4.152
 2196SOL    HW2 6408   3.019   1.350   4.144
 2197SOL     OW 6409   3.134   1.445   4.866
 2197SOL    HW1 6410   3.181   1.458   4.953
 2197SOL    HW2 6411   3.068   1.371   4.875
 2198SOL     OW 6412   3.444   0.639   4.196
 2198SOL    HW1 6413   3.413   0.700   4.269
 2198SOL    HW2 6414   3.494   0.691   4.127
 2199SOL     OW 6415   2.216   1.510   5.053
 2199SOL    HW1 6416   2.195   1.466   4.966
 2199SOL    HW2 6417   2.313   1.536   5.056
 2200SOL     OW 6418   2.435   0.870   4.753
 2200SOL    HW1 6419   2.479   0.959   4.744
 2200SOL    HW2 6420   2.372   0.870   4.830
 2201SOL     OW 6421   3.222   0.862   4.769
 2201SOL    HW1 6422   3.147   0.862   4.703
 2201SOL    HW2 6423   3.259   0.770   4.778
 2202SOL     OW 6424   3.071   0.525   3.999
 2202SOL    HW1 6425   3.084   0.441   4.053
 2202SOL    HW2 6426   3.042   0.599   4.059
 2203SOL     OW 6427   2.169   0.213   4.955
 2203SOL    HW1 6428   2.146   0.250   5.045
 2203SOL    HW2 6429   2.139   0.118   4.949
 2204SOL     OW 6430   1.899   1.310   5.006
 2204SOL    HW1 6431   1.952   1.261   5.074
 2204SOL    HW2 6432   1.921   1.408   5.011
 2205SOL     OW 6433   2.594   0.634   4.788
 2205SOL    HW1 6434   2.653   0.608   4.712
 2205SOL    HW2 6435   2.566   0.730   4.777
 2206SOL     OW 6436   2.169   0.063   4.342
 2206SOL    HW1 6437   2.158   0.157   4.375
 2206SOL    HW2 6438   2.164   0.000   4.419
 2207SOL     OW 6439   3.484   0.367   4.098
 2207SOL    HW1 6440   3.486   0.291   4.162
 2207SOL    HW2 6441   3.436   0.444   4.138
 2208SOL     OW 6442   2.885   0.766   4.690
 2208SOL    HW1 6443   2.900   0.787   4.786
 2208SOL    HW2 6444   2.855   0.671   4.681
 2209SOL     OW 6445   3.402   0.274   3.849
 2209SOL    HW1 6446   3.341   0.199   3.872
 2209SOL    HW2 6447   3.424   0.326   3.932
 2210SOL     OW 6448   3.165   0.838   3.766
 2210SOL    HW1 6449   3.199   0.745   3.781
 2210SOL    HW2 6450   3.183   0.865   3.671
 2211SOL     OW 6451   2.930   1.333   4.573
 2211SOL    HW1 6452   2.937   1.249   4.518
 2211SOL    HW2 6453   2.992   1.402   4.537
 2212SOL     OW 6454   2.181   0.810   4.673
 2212SOL    HW1 6455   2.274   0.846   4.678
 2212SOL    HW2 6456   2.175   0.725   4.725
 2213SOL     OW 6457   2.201   0.509   4.730
 2213SOL    HW1 6458   2.149   0.426   4.713
 2213SOL    HW2 6459   2.278   0.514   4.666
 2214SOL     OW 6460   3.022   0.207   5.201
 2214SOL    HW1 6461   3.022   0.271   5.278
 2214SOL    HW2 6462   3.050   0.255   5.118
 2215SOL     OW 6463   1.870   1.326   3.924
 2215SOL    HW1 6464   1.777   1.347   3.893
 2215SOL    HW2 6465   1.880   1.227   3.937
 2216SOL     OW 6466   1.950   1.801   4.651
 2216SOL    HW1 6467   1.908   1.715   4.624
 2216SOL    HW2 6468   2.044   1.804   4.617
 2217SOL     OW 6469   2.366   1.568   4.634
 2217SOL    HW1 6470   2.432   1.642   4.643
 2217SOL    HW2 6471   2.410   1.489   4.592
 2218SOL     OW 6472   2.864   0.796   4.962
 2218SOL    HW1 6473   2.905   0.764   5.048
 2218SOL    HW2 6474   2.768   0.769   4.959
 2219SOL     OW 6475   1.902   0.544   4.838
 2219SOL    HW1 6476   1.987   0.511   4.797
 2219SOL    HW2 6477   1.915   0.559   4.936
 2220SOL     OW 6478   2.677   0.572   4.049
 2220SOL    HW1 6479   2.684   0.483   4.003
 2220SOL    HW2 6480   2.583   0.606   4.041
 2221SOL     OW 6481   3.519   0.604   4.930
 2221SOL    HW1 6482   3.481   0.535   4.992
 2221SOL    HW2 6483   3.601   0.568   4.886
 2222SOL     OW 6484   2.533   0.464   4.993
 2222SOL    HW1 6485   2.499   0.375   4.963
 2222SOL    HW2 6486   2.559   0.518   4.913
 2223SOL     OW 6487   2.792   1.678   5.189
 2223SOL    HW1 6488   2.768   1.660   5.094
 2223SOL    HW2 6489   2.822   1.772   5.199
 2224SOL     OW 6490   2.335   0.500   3.915
 2224SOL    HW1 6491   2.396   0.580   3.919
 2224SOL    HW2 6492   2.240   0.531   3.922
 2225SOL     OW 6493   3.209   1.059   4.958
 2225SOL    HW1 6494   3.233   0.996   4.884
 2225SOL    HW2 6495   3.119   1.099   4.940
 2226SOL     OW 6496   3.164   0.855   4.033
 2226SOL    HW1 6497   3.078   0.824   4.075
 2226SOL    HW2 6498   3.160   0.841   3.934
 2227SOL     OW 6499   3.621   1.747   4.878
 2227SOL    HW1 6500   3.682   1.777   4.805
 2227SOL    HW2 6501   3.583   1.658   4.856
 2228SOL     OW 6502   3.114   1.731   4.852
 2228SOL    HW1 6503   3.198   1.736   4.798
 2228SOL    HW2 6504   3.091   1.635   4.870
 2229SOL     OW 6505   1.945   1.258   4.746
 2229SOL    HW1 6506   1.940   1.257   4.846
 2229SOL    HW2 6507   1.862   1.217   4.708
 2230SOL     OW 6508   3.588   0.135   4.247
 2230SOL    HW1 6509   3.661   0.118   4.180
 2230SOL    HW2 6510   3.557   0.048   4.285
 2231SOL     OW 6511   3.250   1.573   4.201
 2231SOL    HW1 6512   3.317   1.585   4.127
 2231SOL    HW2 6513   3.210   1.662   4.224
 2232SOL     OW 6514   3.142   0.927   4.396
 2232SOL    HW1 6515   3.202   0.846   4.398
 2232SOL    HW2 6516   3.182   0.996   4.336
 2233SOL     OW 6517   2.534   1.616   3.878
 2233SOL    HW1 6518   2.543   1.626   3.779
 2233SOL    HW2 6519   2.494   1.527   3.899
 2234SOL     OW 6520   3.512   1.720   5.118
 2234SOL    HW1 6521   3.565   1.730   5.034
 2234SOL    HW2 6522   3.485   1.810   5.152
 2235SOL     OW 6523   3.703   0.175   4.687
 2235SOL    HW1 6524   3.742   0.090   4.651
 2235SOL    HW2 6525   3.605   0.177   4.668
 2236SOL     OW 6526   2.125   0.326   4.444
 2236SOL    HW1 6527   2.046   0.377   4.410
 2236SOL    HW2 6528   2.116   0.311   4.542
 2237SOL     OW 6529   3.056   1.612   3.755
 2237SOL    HW1 6530   3.062   1.519   3.792
 2237SOL    HW2 6531   2.997   1.612   3.675
 2238SOL     OW 6532   2.684   1.002   5.096
 2238SOL    HW1 6533   2.724   1.001   5.004
 2238SOL    HW2 6534   2.694   1.094   5.136
 2239SOL     OW 6535   2.778   0.910   4.015
 2239SOL    HW1 6536   2.841   0.948   3.947
 2239SOL    HW2 6537   2.818   0.827   4.054
 2240SOL     OW 6538   3.366   1.607   3.768
 2240SOL    HW1 6539   3.274   1.644   3.775
 2240SOL    HW2 6540   3.404   1.627   3.678
 2241SOL     OW 6541   2.901   1.098   4.420
 2241SOL    HW1 6542   2.831   1.051   4.474
 2241SOL    HW2 6543   2.960   1.030   4.377
 2242SOL     OW 6544   2.876   0.236   4.695
 2242SOL    HW1 6545   2.868   0.200   4.602
 2242SOL    HW2 6546   2.874   0.160   4.760
 2243SOL     OW 6547   2.452   1.487   4.215
 2243SOL    HW1 6548   2.494   1.429   4.145
 2243SOL    HW2 6549   2.408   1.566   4.171
 2244SOL     OW 6550   3.571   0.385   5.105
 2244SOL    HW1 6551   3.644   0.454   5.109
 2244SOL    HW2 6552   3.599   0.310   5.046
 2245SOL     OW 6553   2.117   1.348   4.014
 2245SOL    HW1 6554   2.021   1.349   3.987
 2245SOL    HW2 6555   2.129   1.401   4.098
 2246SOL     OW 6556   1.937   0.345   3.757
 2246SOL    HW1 6557   1.845   0.317   3.728
 2246SOL    HW2 6558   1.968   0.422   3.701
 2247SOL     OW 6559   1.934   0.166   4.042
 2247SOL    HW1 6560   1.917   0.249   3.988
 2247SOL    HW2 6561   2.024   0.129   4.020
 2248SOL     OW 6562   3.045   1.335   3.843
 2248SOL    HW1 6563   2.946   1.324   3.845
 2248SOL    HW2 6564   3.079   1.350   3.936
 2249SOL     OW 6565   3.355   1.767   4.683
 2249SOL    HW1 6566   3.388   1.831   4.614
 2249SOL    HW2 6567   3.421   1.761   4.758
 2250SOL     OW 6568   3.312   1.220   5.357
 2250SOL    HW1 6569   3.303   1.210   5.456
 2250SOL    HW2 6570   3.408   1.213   5.331
 2251SOL     OW 6571   3.536   0.883   4.978
 2251SOL    HW1 6572   3.509   0.794   4.941
 2251SOL    HW2 6573   3.537   0.951   4.905
 2252SOL     OW 6574   3.087   0.325   4.173
 2252SOL    HW1 6575   3.152   0.251   4.162
 2252SOL    HW2 6576   3.107   0.375   4.257
 2253SOL     OW 6577   2.456   0.745   4.376
 2253SOL    HW1 6578   2.506   0.830   4.357
 2253SOL    HW2 6579   2.368   0.747   4.328
 2254SOL     OW 6580   3.592   0.934   5.241
 2254SOL    HW1 6581   3.630   1.025   5.256
 2254SOL    HW2 6582   3.584   0.917   5.142
 2255SOL     OW 6583   2.721   1.374   3.740
 2255SOL    HW1 6584   2.675   1.389   3.828
 2255SOL    HW2 6585   2.765   1.459   3.710
 2256SOL     OW 6586   2.523   1.790   4.677
 2256SOL    HW1 6587   2.477   1.878   4.664
 2256SOL    HW2 6588   2.622   1.802   4.670
 2257SOL     OW 6589   2.721   0.956   4.585
 2257SOL    HW1 6590   2.775   0.887   4.633
 2257SOL    HW2 6591   2.689   1.025   4.651
 2258SOL     OW 6592   2.945   0.984   3.811
 2258SOL    HW1 6593   2.922   1.037   3.729
 2258SOL    HW2 6594   3.026   0.928   3.792
 2259SOL     OW 6595   3.723   1.569   4.575
 2259SOL    HW1 6596   3.652   1.557   4.505
 2259SOL    HW2 6597   3.724   1.490   4.635
 2260SOL     OW 6598   1.941   1.240   4.377
 2260SOL    HW1 6599   1.940   1.193   4.465
 2260SOL    HW2 6600   2.023   1.212   4.326
 2261SOL     OW 6601   3.686   0.192   4.951
 2261SOL    HW1 6602   3.682   0.102   4.995
 2261SOL    HW2 6603   3.689   0.181   4.852
 2262SOL     OW 6604   2.290   0.424   4.244
 2262SOL    HW1 6605   2.320   0.352   4.182
 2262SOL    HW2 6606   2.251   0.384   4.327
 2263SOL     OW 6607   3.567   1.487   4.828
 2263SOL    HW1 6608   3.474   1.462   4.801
 2263SOL    HW2 6609   3.593   1.437   4.910
 2264SOL     OW 6610   2.674   1.586   4.411
 2264SOL    HW1 6611   2.706   1.596   4.317
 2264SOL    HW2 6612   2.595   1.524   4.413
 2265SOL     OW 6613   3.286   0.214   4.836
 2265SOL    HW1 6614   3.338   0.149   4.891
 2265SOL    HW2 6615   3.237   0.277   4.897
 2266SOL     OW 6616   2.863   0.034   4.878
 2266SOL    HW1 6617   2.800  -0.038   4.847
 2266SOL    HW2 6618   2.956  -0.002   4.878
 2267SOL     OW 6619   2.632   1.330   4.025
 2267SOL    HW1 6620   2.586   1.243   4.042
 2267SOL    HW2 6621   2.723   1.327   4.066
 2268SOL     OW 6622   3.214   0.052   3.892
 2268SOL    HW1 6623   3.249   0.011   3.808
 2268SOL    HW2 6624   3.124   0.014   3.912
 2269SOL     OW 6625   3.162   0.453   4.415
 2269SOL    HW1 6626   3.103   0.533   4.419
 2269SOL    HW2 6627   3.177   0.418   4.508
 2270SOL     OW 6628   3.455   0.221   4.606
 2270SOL    HW1 6629   3.371   0.220   4.660
 2270SOL    HW2 6630   3.457   0.304   4.550
 2271SOL     OW 6631   1.901   1.077   4.024
 2271SOL    HW1 6632   2.000   1.066   4.015
 2271SOL    HW2 6633   1.861   0.991   4.056
 2272SOL     OW 6634   2.737   1.646   4.061
 2272SOL    HW1 6635   2.660   1.611   4.007
 2272SOL    HW2 6636   2.705   1.717   4.123
 2273SOL     OW 6637   2.092   2.490   0.113
 2273SOL    HW1 6638   1.999   2.488   0.150
 2273SOL    HW2 6639   2.093   2.451   0.021
 2274SOL     OW 6640   2.087   2.137   0.996
 2274SOL    HW1 6641   2.122   2.120   1.088
 2274SOL    HW2 6642   1.999   2.092   0.984
 2275SOL     OW 6643   1.881   2.230   0.647
 2275SOL    HW1 6644   1.799   2.273   0.686
 2275SOL    HW2 6645   1.853   2.157   0.584
 2276SOL     OW 6646   2.431   3.137   1.165
 2276SOL    HW1 6647   2.338   3.130   1.128
 2276SOL    HW2 6648   2.442   3.226   1.209
 2277SOL     OW 6649   3.417   3.373   0.703
 2277SOL    HW1 6650   3.360   3.357   0.784
 2277SOL    HW2 6651   3.358   3.383   0.623
 2278SOL     OW 6652   2.997   2.565   0.717
 2278SOL    HW1 6653   3.054   2.643   0.692
 2278SOL    HW2 6654   2.937   2.591   0.793
 2279SOL     OW 6655   3.617   2.469   0.231
 2279SOL    HW1 6656   3.605   2.456   0.132
 2279SOL    HW2 6657   3.587   2.388   0.280
 2280SOL     OW 6658   2.630   3.006   1.023
 2280SOL    HW1 6659   2.552   3.023   1.083
 2280SOL    HW2 6660   2.664   3.093   0.987
 2281SOL     OW 6661   2.712   2.660   1.823
 2281SOL    HW1 6662   2.708   2.736   1.888
 2281SOL    HW2 6663   2.734   2.696   1.732
 2282SOL     OW 6664   2.547   2.874   0.665
 2282SOL    HW1 6665   2.616   2.858   0.735
 2282SOL    HW2 6666   2.474   2.931   0.703
 2283SOL     OW 6667   2.548   3.023   1.803
 2283SOL    HW1 6668   2.608   3.102   1.817
 2283SOL    HW2 6669   2.462   3.054   1.762
 2284SOL     OW 6670   2.197   3.297   1.061
 2284SOL    HW1 6671   2.119   3.266   1.008
 2284SOL    HW2 6672   2.255   3.355   1.004
 2285SOL     OW 6673   3.322   3.367   1.339
 2285SOL    HW1 6674   3.346   3.461   1.365
 2285SOL    HW2 6675   3.306   3.313   1.421
 2286SOL     OW 6676   2.300   2.254   1.499
 2286SOL    HW1 6677   2.382   2.198   1.508
 2286SOL    HW2 6678   2.219   2.196   1.503
 2287SOL     OW 6679   3.465   2.309   0.737
 2287SOL    HW1 6680   3.391   2.355   0.687
 2287SOL    HW2 6681   3.516   2.377   0.790
 2288SOL     OW 6682   2.093   3.575   0.483
 2288SOL    HW1 6683   2.127   3.652   0.537
 2288SOL    HW2 6684   2.137   3.575   0.393
 2289SOL     OW 6685   2.989   3.203   1.690
 2289SOL    HW1 6686   3.036   3.203   1.778
 2289SOL    HW2 6687   2.941   3.116   1.679
 2290SOL     OW 6688   2.092   3.296   0.538
 2290SOL    HW1 6689   2.066   3.392   0.538
 2290SOL    HW2 6690   2.021   3.242   0.583
 2291SOL     OW 6691   2.102   2.953   0.886
 2291SOL    HW1 6692   2.116   2.869   0.938
 2291SOL    HW2 6693   2.047   3.017   0.941
 2292SOL     OW 6694   2.482   3.648   1.439
 2292SOL    HW1 6695   2.390   3.631   1.474
 2292SOL    HW2 6696   2.510   3.740   1.465
 2293SOL     OW 6697   2.468   2.826   0.123
 2293SOL    HW1 6698   2.475   2.910   0.069
 2293SOL    HW2 6699   2.514   2.839   0.211
 2294SOL     OW 6700   3.456   1.976   1.480
 2294SOL    HW1 6701   3.438   2.043   1.408
 2294SOL    HW2 6702   3.453   2.022   1.569
 2295SOL     OW 6703   1.984   2.505   0.563
 2295SOL    HW1 6704   1.939   2.417   0.580
 2295SOL    HW2 6705   1.983   2.559   0.647
 2296SOL     OW 6706   3.704   3.629   0.359
 2296SOL    HW1 6707   3.758   3.600   0.439
 2296SOL    HW2 6708   3.734   3.719   0.330
 2297SOL     OW 6709   1.889   3.458   0.117
 2297SOL    HW1 6710   1.870   3.362   0.138
 2297SOL    HW2 6711   1.856   3.516   0.192
 2298SOL     OW 6712   3.551   2.784   0.612
 2298SOL    HW1 6713   3.646   2.755   0.620
 2298SOL    HW2 6714   3.543   2.849   0.537
 2299SOL     OW 6715   3.503   2.970   0.432
 2299SOL    HW1 6716   3.589   2.972   0.380
 2299SOL    HW2 6717   3.517   3.017   0.520
 2300SOL     OW 6718   1.975   2.599   1.597
 2300SOL    HW1 6719   2.063   2.586   1.642
 2300SOL    HW2 6720   1.962   2.696   1.575
 2301SOL     OW 6721   2.475   3.227   0.726
 2301SOL    HW1 6722   2.426   3.140   0.735
 2301SOL    HW2 6723   2.452   3.270   0.639
 2302SOL     OW 6724   3.155   3.090   1.423
 2302SOL    HW1 6725   3.192   3.017   1.365
 2302SOL    HW2 6726   3.207   3.095   1.508
 2303SOL     OW 6727   2.671   1.866   0.502
 2303SOL    HW1 6728   2.711   1.957   0.493
 2303SOL    HW2 6729   2.571   1.874   0.508
 2304SOL     OW 6730   2.059   2.838   1.264
 2304SOL    HW1 6731   2.148   2.793   1.250
 2304SOL    HW2 6732   1.986   2.773   1.245
 2305SOL     OW 6733   3.387   2.861   0.190
 2305SOL    HW1 6734   3.324   2.785   0.203
 2305SOL    HW2 6735   3.435   2.879   0.276
 2306SOL     OW 6736   3.049   3.654   1.616
 2306SOL    HW1 6737   3.073   3.714   1.540
 2306SOL    HW2 6738   3.056   3.559   1.586
 2307SOL     OW 6739   2.179   2.113   1.801
 2307SOL    HW1 6740   2.250   2.184   1.807
 2307SOL    HW2 6741   2.091   2.152   1.829
 2308SOL     OW 6742   3.328   3.279   0.953
 2308SOL    HW1 6743   3.269   3.285   1.033
 2308SOL    HW2 6744   3.313   3.191   0.907
 2309SOL     OW 6745   3.529   3.576   0.572
 2309SOL    HW1 6746   3.488   3.553   0.484
 2309SOL    HW2 6747   3.511   3.502   0.637
 2310SOL     OW 6748   2.460   2.591   0.270
 2310SOL    HW1 6749   2.484   2.660   0.202
 2310SOL    HW2 6750   2.382   2.624   0.324
 2311SOL     OW 6751   3.143   2.207   0.944
 2311SOL    HW1 6752   3.057   2.157   0.931
 2311SOL    HW2 6753   3.205   2.153   1.000
 2312SOL     OW 6754   3.438   3.524   0.307
 2312SOL    HW1 6755   3.527   3.570   0.310
 2312SOL    HW2 6756   3.417   3.500   0.212
 2313SOL     OW 6757   2.669   2.467   1.465
 2313SOL    HW1 6758   2.622   2.464   1.554
 2313SOL    HW2 6759   2.618   2.412   1.399
 2314SOL     OW 6760   3.256   2.331   1.674
 2314SOL    HW1 6761   3.236   2.374   1.762
 2314SOL    HW2 6762   3.334   2.269   1.683
 2315SOL     OW 6763   2.835   2.752   1.572
 2315SOL    HW1 6764   2.881   2.668   1.543
 2315SOL    HW2 6765   2.779   2.786   1.497
 2316SOL     OW 6766   2.853   2.272   1.242
 2316SOL    HW1 6767   2.776   2.306   1.296
 2316SOL    HW2 6768   2.819   2.221   1.163
 2317SOL     OW 6769   2.903   2.563   0.429
 2317SOL    HW1 6770   2.929   2.559   0.525
 2317SOL    HW2 6771   2.818   2.512   0.415
 2318SOL     OW 6772   1.938   2.673   0.789
 2318SOL    HW1 6773   2.037   2.661   0.798
 2318SOL    HW2 6774   1.914   2.768   0.810
 2319SOL     OW 6775   1.992   3.683   1.571
 2319SOL    HW1 6776   1.982   3.668   1.670
 2319SOL    HW2 6777   1.906   3.719   1.535
 2320SOL     OW 6778   2.727   2.210   0.195
 2320SOL    HW1 6779   2.786   2.273   0.146
 2320SOL    HW2 6780   2.746   2.116   0.166
 2321SOL     OW 6781   3.581   2.447   1.831
 2321SOL    HW1 6782   3.555   2.536   1.795
 2321SOL    HW2 6783   3.579   2.379   1.758
 2322SOL     OW 6784   3.224   3.006   0.545
 2322SOL    HW1 6785   3.307   2.977   0.497
 2322SOL    HW2 6786   3.175   3.073   0.489
 2323SOL     OW 6787   2.412   2.058   0.885
 2323SOL    HW1 6788   2.407   2.053   0.985
 2323SOL    HW2 6789   2.414   2.154   0.856
 2324SOL     OW 6790   2.870   3.318   0.477
 2324SOL    HW1 6791   2.824   3.390   0.425
 2324SOL    HW2 6792   2.866   3.338   0.575
 2325SOL     OW 6793   2.213   3.663   0.853
 2325SOL    HW1 6794   2.263   3.577   0.859
 2325SOL    HW2 6795   2.278   3.740   0.850
 2326SOL     OW 6796   3.657   2.928   0.873
 2326SOL    HW1 6797   3.595   2.913   0.797
 2326SOL    HW2 6798   3.605   2.939   0.958
 2327SOL     OW 6799   3.089   3.412   1.506
 2327SOL    HW1 6800   3.095   3.335   1.570
 2327SOL    HW2 6801   3.037   3.386   1.426
 2328SOL     OW 6802   2.183   2.805   0.242
 2328SOL    HW1 6803   2.265   2.844   0.200
 2328SOL    HW2 6804   2.156   2.723   0.193
 2329SOL     OW 6805   3.320   2.597   0.728
 2329SOL    HW1 6806   3.315   2.532   0.803
 2329SOL    HW2 6807   3.400   2.656   0.741
 2330SOL     OW 6808   2.323   3.128   1.727
 2330SOL    HW1 6809   2.273   3.129   1.641
 2330SOL    HW2 6810   2.260   3.110   1.803
 2331SOL     OW 6811   2.973   3.638   0.237
 2331SOL    HW1 6812   2.913   3.576   0.287
 2331SOL    HW2 6813   3.004   3.594   0.152
 2332SOL     OW 6814   2.064   2.147   1.498
 2332SOL    HW1 6815   1.984   2.207   1.485
 2332SOL    HW2 6816   2.054   2.098   1.584
 2333SOL     OW 6817   3.494   3.239   0.081
 2333SOL    HW1 6818   3.462   3.333   0.071
 2333SOL    HW2 6819   3.418   3.176   0.069
 2334SOL     OW 6820   2.326   3.605   0.323
 2334SOL    HW1 6821   2.359   3.644   0.409
 2334SOL    HW2 6822   2.402   3.598   0.258
 2335SOL     OW 6823   3.262   1.969   0.426
 2335SOL    HW1 6824   3.238   1.932   0.336
 2335SOL    HW2 6825   3.361   1.985   0.430
 2336SOL     OW 6826   2.111   3.647   1.241
 2336SOL    HW1 6827   2.168   3.582   1.291
 2336SOL    HW2 6828   2.095   3.614   1.148
 2337SOL     OW 6829   2.802   3.560   0.904
 2337SOL    HW1 6830   2.882   3.503   0.925
 2337SOL    HW2 6831   2.753   3.520   0.827
 2338SOL     OW 6832   2.244   2.562   0.480
 2338SOL    HW1 6833   2.289   2.472   0.477
 2338SOL    HW2 6834   2.150   2.551   0.513
 2339SOL     OW 6835   3.409   2.084   1.729
 2339SOL    HW1 6836   3.404   2.121   1.821
 2339SOL    HW2 6837   3.337   2.015   1.717
 2340SOL     OW 6838   2.643   2.126   1.749
 2340SOL    HW1 6839   2.710   2.065   1.792
 2340SOL    HW2 6840   2.570   2.145   1.814
 2341SOL     OW 6841   2.750   3.376   1.195
 2341SOL    HW1 6842   2.727   3.351   1.101
 2341SOL    HW2 6843   2.811   3.307   1.234
 2342SOL     OW 6844   3.213   2.452   1.433
 2342SOL    HW1 6845   3.241   2.409   1.518
 2342SOL    HW2 6846   3.238   2.548   1.434
 2343SOL     OW 6847   2.665   3.264   0.924
 2343SOL    HW1 6848   2.755   3.278   0.882
 2343SOL    HW2 6849   2.594   3.266   0.853
 2344SOL     OW 6850   2.784   2.365   0.899
 2344SOL    HW1 6851   2.759   2.356   0.803
 2344SOL    HW2 6852   2.832   2.283   0.930
 2345SOL     OW 6853   2.401   1.926   0.512
 2345SOL    HW1 6854   2.320   1.927   0.570
 2345SOL    HW2 6855   2.404   2.009   0.457
 2346SOL     OW 6856   3.296   3.050   0.041
 2346SOL    HW1 6857   3.328   2.974   0.098
 2346SOL    HW2 6858   3.204   3.077   0.071
 2347SOL     OW 6859   2.159   1.897   0.171
 2347SOL    HW1 6860   2.208   1.981   0.150
 2347SOL    HW2 6861   2.221   1.832   0.216
 2348SOL     OW 6862   2.797   2.098   0.480
 2348SOL    HW1 6863   2.749   2.139   0.402
 2348SOL    HW2 6864   2.896   2.096   0.461
 2349SOL     OW 6865   2.938   2.545   1.464
 2349SOL    HW1 6866   2.858   2.484   1.467
 2349SOL    HW2 6867   3.019   2.492   1.440
 2350SOL     OW 6868   3.089   3.432   0.793
 2350SOL    HW1 6869   3.110   3.506   0.728
 2350SOL    HW2 6870   3.157   3.432   0.866
 2351SOL     OW 6871   2.321   3.014   0.741
 2351SOL    HW1 6872   2.250   2.987   0.806
 2351SOL    HW2 6873   2.295   2.986   0.648
 2352SOL     OW 6874   3.133   3.659   0.591
 2352SOL    HW1 6875   3.177   3.723   0.527
 2352SOL    HW2 6876   3.083   3.711   0.661
 2353SOL     OW 6877   2.894   2.411   0.016
 2353SOL    HW1 6878   2.853   2.493  -0.023
 2353SOL    HW2 6879   2.958   2.437   0.089
 2354SOL     OW 6880   1.940   2.418   1.386
 2354SOL    HW1 6881   2.032   2.417   1.345
 2354SOL    HW2 6882   1.934   2.492   1.453
 2355SOL     OW 6883   2.423   2.084   1.147
 2355SOL    HW1 6884   2.461   2.000   1.184
 2355SOL    HW2 6885   2.335   2.103   1.191
 2356SOL     OW 6886   2.728   2.316   0.642
 2356SOL    HW1 6887   2.696   2.388   0.580
 2356SOL    HW2 6888   2.752   2.235   0.589
 2357SOL     OW 6889   2.879   1.901   0.753
 2357SOL    HW1 6890   2.807   1.906   0.684
 2357SOL    HW2 6891   2.855   1.832   0.822
 2358SOL     OW 6892   3.291   3.035   0.867
 2358SOL    HW1 6893   3.236   2.951   0.860
 2358SOL    HW2 6894   3.317   3.064   0.775
 2359SOL     OW 6895   3.328   2.452   0.992
 2359SOL    HW1 6896   3.298   2.357   0.999
 2359SOL    HW2 6897   3.401   2.468   1.058
 2360SOL     OW 6898   3.719   2.695   0.377
 2360SOL    HW1 6899   3.761   2.631   0.441
 2360SOL    HW2 6900   3.681   2.644   0.299
 2361SOL     OW 6901   2.350   3.247   0.174
 2361SOL    HW1 6902   2.263   3.232   0.221
 2361SOL    HW2 6903   2.333   3.273   0.079
 2362SOL     OW 6904   3.526   3.142   0.657
 2362SOL    HW1 6905   3.625   3.150   0.671
 2362SOL    HW2 6906   3.481   3.226   0.688
 2363SOL     OW 6907   3.252   2.437   0.078
 2363SOL    HW1 6908   3.198   2.416   0.159
 2363SOL    HW2 6909   3.343   2.396   0.087
 2364SOL     OW 6910   2.389   2.118   0.328
 2364SOL    HW1 6911   2.416   2.059   0.253
 2364SOL    HW2 6912   2.389   2.213   0.297
 2365SOL     OW 6913   3.616   3.085   1.588
 2365SOL    HW1 6914   3.707   3.046   1.575
 2365SOL    HW2 6915   3.624   3.181   1.612
 2366SOL     OW 6916   2.926   3.209   1.340
 2366SOL    HW1 6917   2.846   3.186   1.395
 2366SOL    HW2 6918   3.009   3.183   1.389
 2367SOL     OW 6919   3.454   3.491   1.625
 2367SOL    HW1 6920   3.481   3.525   1.535
 2367SOL    HW2 6921   3.533   3.453   1.671
 2368SOL     OW 6922   2.973   3.057   1.100
 2368SOL    HW1 6923   2.933   3.101   1.181
 2368SOL    HW2 6924   2.932   3.094   1.017
 2369SOL     OW 6925   3.500   2.961   1.079
 2369SOL    HW1 6926   3.505   3.042   1.138
 2369SOL    HW2 6927   3.414   2.963   1.028
 2370SOL     OW 6928   2.777   1.951   1.402
 2370SOL    HW1 6929   2.802   1.931   1.307
 2370SOL    HW2 6930   2.849   2.007   1.444
 2371SOL     OW 6931   2.842   2.978   1.719
 2371SOL    HW1 6932   2.743   2.984   1.729
 2371SOL    HW2 6933   2.865   2.898   1.663
 2372SOL     OW 6934   2.567   2.912   0.368
 2372SOL    HW1 6935   2.553   2.919   0.467
 2372SOL    HW2 6936   2.651   2.861   0.350
 2373SOL     OW 6937   2.272   2.675   1.251
 2373SOL    HW1 6938   2.358   2.687   1.301
 2373SOL    HW2 6939   2.230   2.588   1.278
 2374SOL     OW 6940   3.136   2.248   1.262
 2374SOL    HW1 6941   3.157   2.322   1.326
 2374SOL    HW2 6942   3.047   2.265   1.219
 2375SOL     OW 6943   1.926   3.426   1.331
 2375SOL    HW1 6944   1.880   3.508   1.297
 2375SOL    HW2 6945   2.024   3.445   1.340
 2376SOL     OW 6946   2.229   2.962   0.501
 2376SOL    HW1 6947   2.222   3.045   0.445
 2376SOL    HW2 6948   2.233   2.882   0.441
 2377SOL     OW 6949   2.428   2.399   0.865
 2377SOL    HW1 6950   2.440   2.465   0.791
 2377SOL    HW2 6951   2.474   2.433   0.948
 2378SOL     OW 6952   3.114   3.210   0.388
 2378SOL    HW1 6953   3.164   3.287   0.428
 2378SOL    HW2 6954   3.019   3.212   0.420
 2379SOL     OW 6955   3.134   3.307   1.142
 2379SOL    HW1 6956   3.181   3.320   1.229
 2379SOL    HW2 6957   3.068   3.233   1.151
 2380SOL     OW 6958   3.444   2.501   0.472
 2380SOL    HW1 6959   3.413   2.562   0.545
 2380SOL    HW2 6960   3.494   2.553   0.403
 2381SOL     OW 6961   2.216   3.372   1.329
 2381SOL    HW1 6962   2.195   3.328   1.242
 2381SOL    HW2 6963   2.313   3.398   1.332
 2382SOL     OW 6964   2.264   2.613   1.598
 2382SOL    HW1 6965   2.332   2.668   1.551
 2382SOL    HW2 6966   2.304   2.525   1.625
 2383SOL     OW 6967   3.449   2.641   1.670
 2383SOL    HW1 6968   3.357   2.679   1.665
 2383SOL    HW2 6969   3.509   2.688   1.605
 2384SOL     OW 6970   2.875   1.967   1.770
 2384SOL    HW1 6971   2.881   2.052   1.718
 2384SOL    HW2 6972   2.907   1.891   1.713
 2385SOL     OW 6973   2.366   1.912   1.740
 2385SOL    HW1 6974   2.324   1.855   1.670
 2385SOL    HW2 6975   2.300   1.981   1.772
 2386SOL     OW 6976   2.435   2.732   1.029
 2386SOL    HW1 6977   2.479   2.821   1.020
 2386SOL    HW2 6978   2.372   2.732   1.106
 2387SOL     OW 6979   3.222   2.724   1.045
 2387SOL    HW1 6980   3.147   2.724   0.979
 2387SOL    HW2 6981   3.259   2.632   1.054
 2388SOL     OW 6982   3.071   2.387   0.275
 2388SOL    HW1 6983   3.084   2.303   0.329
 2388SOL    HW2 6984   3.042   2.461   0.335
 2389SOL     OW 6985   2.169   2.075   1.231
 2389SOL    HW1 6986   2.146   2.112   1.321
 2389SOL    HW2 6987   2.139   1.980   1.225
 2390SOL     OW 6988   1.899   3.172   1.282
 2390SOL    HW1 6989   1.952   3.123   1.350
 2390SOL    HW2 6990   1.921   3.270   1.287
 2391SOL     OW 6991   2.594   2.496   1.064
 2391SOL    HW1 6992   2.653   2.470   0.988
 2391SOL    HW2 6993   2.566   2.592   1.053
 2392SOL     OW 6994   3.590   2.797   1.854
 2392SOL    HW1 6995   3.544   2.790   1.765
 2392SOL    HW2 6996   3.528   2.841   1.920
 2393SOL     OW 6997   2.169   1.925   0.618
 2393SOL    HW1 6998   2.158   2.019   0.651
 2393SOL    HW2 6999   2.164   1.862   0.695
 2394SOL     OW 7000   3.484   2.229   0.374
 2394SOL    HW1 7001   3.486   2.153   0.438
 2394SOL    HW2 7002   3.436   2.306   0.414
 2395SOL     OW 7003   2.885   2.628   0.966
 2395SOL    HW1 7004   2.900   2.649   1.062
 2395SOL    HW2 7005   2.855   2.533   0.957
 2396SOL     OW 7006   2.842   3.435   1.700
 2396SOL    HW1 7007   2.822   3.479   1.612
 2396SOL    HW2 7008   2.881   3.344   1.684
 2397SOL     OW 7009   3.721   3.380   1.605
 2397SOL    HW1 7010   3.735   3.407   1.510
 2397SOL    HW2 7011   3.804   3.402   1.658
 2398SOL     OW 7012   3.402   2.136   0.125
 2398SOL    HW1 7013   3.341   2.061   0.148
 2398SOL    HW2 7014   3.424   2.188   0.208
 2399SOL     OW 7015   3.165   2.700   0.042
 2399SOL    HW1 7016   3.199   2.607   0.057
 2399SOL    HW2 7017   3.183   2.727  -0.053
 2400SOL     OW 7018   2.930   3.195   0.849
 2400SOL    HW1 7019   2.937   3.111   0.794
 2400SOL    HW2 7020   2.992   3.264   0.813
 2401SOL     OW 7021   2.181   2.672   0.949
 2401SOL    HW1 7022   2.274   2.708   0.954
 2401SOL    HW2 7023   2.175   2.587   1.001
 2402SOL     OW 7024   2.201   2.371   1.006
 2402SOL    HW1 7025   2.149   2.288   0.989
 2402SOL    HW2 7026   2.278   2.376   0.942
 2403SOL     OW 7027   3.000   2.242   1.678
 2403SOL    HW1 7028   2.955   2.305   1.742
 2403SOL    HW2 7029   3.093   2.273   1.661
 2404SOL     OW 7030   3.022   2.069   1.477
 2404SOL    HW1 7031   3.022   2.133   1.554
 2404SOL    HW2 7032   3.050   2.117   1.394
 2405SOL     OW 7033   1.950   3.663   0.927
 2405SOL    HW1 7034   1.908   3.577   0.900
 2405SOL    HW2 7035   2.044   3.666   0.893
 2406SOL     OW 7036   2.366   3.430   0.910
 2406SOL    HW1 7037   2.432   3.504   0.919
 2406SOL    HW2 7038   2.410   3.351   0.868
 2407SOL     OW 7039   2.864   2.658   1.238
 2407SOL    HW1 7040   2.905   2.626   1.324
 2407SOL    HW2 7041   2.768   2.631   1.235
 2408SOL     OW 7042   1.902   2.406   1.114
 2408SOL    HW1 7043   1.987   2.373   1.073
 2408SOL    HW2 7044   1.915   2.421   1.212
 2409SOL     OW 7045   2.051   2.382   1.722
 2409SOL    HW1 7046   2.110   2.342   1.652
 2409SOL    HW2 7047   1.993   2.453   1.681
 2410SOL     OW 7048   3.231   2.812   1.660
 2410SOL    HW1 7049   3.270   2.901   1.680
 2410SOL    HW2 7050   3.241   2.792   1.563
 2411SOL     OW 7051   2.677   2.434   0.325
 2411SOL    HW1 7052   2.684   2.345   0.279
 2411SOL    HW2 7053   2.583   2.468   0.317
 2412SOL     OW 7054   3.519   2.466   1.206
 2412SOL    HW1 7055   3.481   2.397   1.268
 2412SOL    HW2 7056   3.601   2.430   1.162
 2413SOL     OW 7057   2.114   3.426   1.744
 2413SOL    HW1 7058   2.084   3.483   1.820
 2413SOL    HW2 7059   2.107   3.329   1.770
 2414SOL     OW 7060   2.533   2.326   1.269
 2414SOL    HW1 7061   2.499   2.237   1.239
 2414SOL    HW2 7062   2.559   2.380   1.189
 2415SOL     OW 7063   2.792   3.540   1.465
 2415SOL    HW1 7064   2.768   3.522   1.370
 2415SOL    HW2 7065   2.822   3.634   1.475
 2416SOL     OW 7066   2.335   2.362   0.191
 2416SOL    HW1 7067   2.396   2.442   0.195
 2416SOL    HW2 7068   2.240   2.393   0.198
 2417SOL     OW 7069   2.021   2.999   1.466
 2417SOL    HW1 7070   2.043   2.938   1.542
 2417SOL    HW2 7071   2.031   2.950   1.380
 2418SOL     OW 7072   3.209   2.921   1.234
 2418SOL    HW1 7073   3.233   2.858   1.160
 2418SOL    HW2 7074   3.119   2.961   1.216
 2419SOL     OW 7075   3.164   2.717   0.309
 2419SOL    HW1 7076   3.078   2.686   0.351
 2419SOL    HW2 7077   3.160   2.703   0.210
 2420SOL     OW 7078   3.621   3.609   1.154
 2420SOL    HW1 7079   3.682   3.639   1.081
 2420SOL    HW2 7080   3.583   3.520   1.132
 2421SOL     OW 7081   3.114   3.593   1.128
 2421SOL    HW1 7082   3.198   3.598   1.074
 2421SOL    HW2 7083   3.091   3.497   1.146
 2422SOL     OW 7084   1.945   3.120   1.022
 2422SOL    HW1 7085   1.940   3.119   1.122
 2422SOL    HW2 7086   1.862   3.079   0.984
 2423SOL     OW 7087   2.550   3.524   1.716
 2423SOL    HW1 7088   2.494   3.605   1.725
 2423SOL    HW2 7089   2.602   3.528   1.630
 2424SOL     OW 7090   2.765   1.948   0.133
 2424SOL    HW1 7091   2.816   1.949   0.047
 2424SOL    HW2 7092   2.821   1.906   0.204
 2425SOL     OW 7093   3.588   1.997   0.523
 2425SOL    HW1 7094   3.661   1.980   0.456
 2425SOL    HW2 7095   3.557   1.910   0.561
 2426SOL     OW 7096   3.250   3.435   0.477
 2426SOL    HW1 7097   3.317   3.447   0.403
 2426SOL    HW2 7098   3.210   3.524   0.500
 2427SOL     OW 7099   1.992   3.656   1.851
 2427SOL    HW1 7100   1.951   3.582   1.904
 2427SOL    HW2 7101   2.056   3.707   1.909
 2428SOL     OW 7102   3.142   2.789   0.672
 2428SOL    HW1 7103   3.202   2.708   0.674
 2428SOL    HW2 7104   3.182   2.858   0.612
 2429SOL     OW 7105   2.692   3.135   1.422
 2429SOL    HW1 7106   2.687   3.168   1.517
 2429SOL    HW2 7107   2.606   3.154   1.376
 2430SOL     OW 7108   2.534   3.478   0.154
 2430SOL    HW1 7109   2.543   3.488   0.055
 2430SOL    HW2 7110   2.494   3.389   0.175
 2431SOL     OW 7111   3.512   3.582   1.394
 2431SOL    HW1 7112   3.565   3.592   1.310
 2431SOL    HW2 7113   3.485   3.672   1.428
 2432SOL     OW 7114   3.703   2.037   0.963
 2432SOL    HW1 7115   3.742   1.952   0.927
 2432SOL    HW2 7116   3.605   2.039   0.944
 2433SOL     OW 7117   2.125   2.188   0.720
 2433SOL    HW1 7118   2.046   2.239   0.686
 2433SOL    HW2 7119   2.116   2.173   0.818
 2434SOL     OW 7120   3.056   3.474   0.031
 2434SOL    HW1 7121   3.062   3.381   0.068
 2434SOL    HW2 7122   2.997   3.474  -0.049
 2435SOL     OW 7123   2.684   2.864   1.372
 2435SOL    HW1 7124   2.724   2.863   1.280
 2435SOL    HW2 7125   2.694   2.956   1.412
 2436SOL     OW 7126   2.778   2.772   0.291
 2436SOL    HW1 7127   2.841   2.810   0.223
 2436SOL    HW2 7128   2.818   2.689   0.330
 2437SOL     OW 7129   3.366   3.469   0.044
 2437SOL    HW1 7130   3.274   3.506   0.051
 2437SOL    HW2 7131   3.404   3.489  -0.046
 2438SOL     OW 7132   2.234   3.150   1.490
 2438SOL    HW1 7133   2.221   3.243   1.456
 2438SOL    HW2 7134   2.150   3.098   1.477
 2439SOL     OW 7135   3.476   3.154   1.289
 2439SOL    HW1 7136   3.536   3.157   1.369
 2439SOL    HW2 7137   3.401   3.218   1.302
 2440SOL     OW 7138   2.901   2.960   0.696
 2440SOL    HW1 7139   2.831   2.913   0.750
 2440SOL    HW2 7140   2.960   2.892   0.653
 2441SOL     OW 7141   2.876   2.098   0.971
 2441SOL    HW1 7142   2.868   2.062   0.878
 2441SOL    HW2 7143   2.874   2.022   1.036
 2442SOL     OW 7144   2.452   3.349   0.491
 2442SOL    HW1 7145   2.494   3.291   0.421
 2442SOL    HW2 7146   2.408   3.428   0.447
 2443SOL     OW 7147   3.571   2.247   1.381
 2443SOL    HW1 7148   3.644   2.316   1.385
 2443SOL    HW2 7149   3.599   2.172   1.322
 2444SOL     OW 7150   2.117   3.210   0.290
 2444SOL    HW1 7151   2.021   3.211   0.263
 2444SOL    HW2 7152   2.129   3.263   0.374
 2445SOL     OW 7153   1.967   2.875   1.726
 2445SOL    HW1 7154   1.890   2.842   1.780
 2445SOL    HW2 7155   2.052   2.845   1.768
 2446SOL     OW 7156   2.534   2.065   1.489
 2446SOL    HW1 7157   2.624   2.049   1.449
 2446SOL    HW2 7158   2.542   2.070   1.588
 2447SOL     OW 7159   3.302   2.718   1.398
 2447SOL    HW1 7160   3.245   2.770   1.335
 2447SOL    HW2 7161   3.398   2.730   1.374
 2448SOL     OW 7162   1.934   2.028   0.318
 2448SOL    HW1 7163   1.917   2.111   0.264
 2448SOL    HW2 7164   2.024   1.991   0.296
 2449SOL     OW 7165   3.045   3.197   0.119
 2449SOL    HW1 7166   2.946   3.186   0.121
 2449SOL    HW2 7167   3.079   3.212   0.212
 2450SOL     OW 7168   2.475   2.704   1.431
 2450SOL    HW1 7169   2.531   2.785   1.414
 2450SOL    HW2 7170   2.534   2.624   1.434
 2451SOL     OW 7171   3.355   3.629   0.959
 2451SOL    HW1 7172   3.388   3.693   0.890
 2451SOL    HW2 7173   3.421   3.623   1.034
 2452SOL     OW 7174   2.578   2.427   1.708
 2452SOL    HW1 7175   2.597   2.492   1.782
 2452SOL    HW2 7176   2.638   2.347   1.717
 2453SOL     OW 7177   3.312   3.082   1.633
 2453SOL    HW1 7178   3.303   3.072   1.732
 2453SOL    HW2 7179   3.408   3.075   1.607
 2454SOL     OW 7180   2.252   3.603   1.560
 2454SOL    HW1 7181   2.161   3.644   1.558
 2454SOL    HW2 7182   2.245   3.509   1.592
 2455SOL     OW 7183   3.536   2.745   1.254
 2455SOL    HW1 7184   3.509   2.656   1.217
 2455SOL    HW2 7185   3.537   2.813   1.181
 2456SOL     OW 7186   3.087   2.187   0.449
 2456SOL    HW1 7187   3.152   2.113   0.438
 2456SOL    HW2 7188   3.107   2.237   0.533
 2457SOL     OW 7189   2.456   2.607   0.652
 2457SOL    HW1 7190   2.506   2.692   0.633
 2457SOL    HW2 7191   2.368   2.609   0.604
 2458SOL     OW 7192   3.639   2.204   1.642
 2458SOL    HW1 7193   3.622   2.235   1.548
 2458SOL    HW2 7194   3.555   2.167   1.680
 2459SOL     OW 7195   3.592   2.796   1.517
 2459SOL    HW1 7196   3.630   2.887   1.532
 2459SOL    HW2 7197   3.584   2.779   1.418
 2460SOL     OW 7198   2.721   3.236   0.016
 2460SOL    HW1 7199   2.675   3.251   0.104
 2460SOL    HW2 7200   2.765   3.321  -0.014
 2461SOL     OW 7201   2.523   3.652   0.953
 2461SOL    HW1 7202   2.477   3.740   0.940
 2461SOL    HW2 7203   2.622   3.664   0.946
 2462SOL     OW 7204   2.721   2.818   0.861
 2462SOL    HW1 7205   2.775   2.749   0.909
 2462SOL    HW2 7206   2.689   2.887   0.927
 2463SOL     OW 7207   2.945   2.846   0.087
 2463SOL    HW1 7208   2.922   2.899   0.005
 2463SOL    HW2 7209   3.026   2.790   0.068
 2464SOL     OW 7210   3.723   3.431   0.851
 2464SOL    HW1 7211   3.652   3.419   0.781
 2464SOL    HW2 7212   3.724   3.352   0.911
 2465SOL     OW 7213   2.083   3.176   1.844
 2465SOL    HW1 7214   2.018   3.103   1.823
 2465SOL    HW2 7215   2.087   3.190   1.942
 2466SOL     OW 7216   1.941   3.102   0.653
 2466SOL    HW1 7217   1.940   3.055   0.741
 2466SOL    HW2 7218   2.023   3.074   0.602
 2467SOL     OW 7219   2.534   3.253   1.624
 2467SOL    HW1 7220   2.456   3.203   1.662
 2467SOL    HW2 7221   2.531   3.348   1.655
 2468SOL     OW 7222   3.686   2.054   1.227
 2468SOL    HW1 7223   3.682   1.964   1.271
 2468SOL    HW2 7224   3.689   2.043   1.128
 2469SOL     OW 7225   2.290   2.286   0.520
 2469SOL    HW1 7226   2.320   2.214   0.458
 2469SOL    HW2 7227   2.251   2.246   0.603
 2470SOL     OW 7228   3.567   3.349   1.104
 2470SOL    HW1 7229   3.474   3.324   1.077
 2470SOL    HW2 7230   3.593   3.299   1.186
 2471SOL     OW 7231   2.179   2.409   1.280
 2471SOL    HW1 7232   2.217   2.350   1.352
 2471SOL    HW2 7233   2.219   2.383   1.192
 2472SOL     OW 7234   2.674   3.448   0.687
 2472SOL    HW1 7235   2.706   3.458   0.593
 2472SOL    HW2 7236   2.595   3.386   0.689
 2473SOL     OW 7237   3.286   2.076   1.112
 2473SOL    HW1 7238   3.338   2.011   1.167
 2473SOL    HW2 7239   3.237   2.139   1.173
 2474SOL     OW 7240   2.863   1.896   1.154
 2474SOL    HW1 7241   2.800   1.824   1.123
 2474SOL    HW2 7242   2.956   1.860   1.154
 2475SOL     OW 7243   2.632   3.192   0.301
 2475SOL    HW1 7244   2.586   3.105   0.318
 2475SOL    HW2 7245   2.723   3.189   0.342
 2476SOL     OW 7246   2.480   3.429   1.284
 2476SOL    HW1 7247   2.475   3.511   1.341
 2476SOL    HW2 7248   2.569   3.426   1.239
 2477SOL     OW 7249   3.214   1.914   0.168
 2477SOL    HW1 7250   3.249   1.873   0.084
 2477SOL    HW2 7251   3.124   1.876   0.188
 2478SOL     OW 7252   3.162   2.315   0.691
 2478SOL    HW1 7253   3.103   2.395   0.695
 2478SOL    HW2 7254   3.177   2.280   0.784
 2479SOL     OW 7255   3.455   2.083   0.882
 2479SOL    HW1 7256   3.371   2.082   0.936
 2479SOL    HW2 7257   3.457   2.166   0.826
 2480SOL     OW 7258   1.901   2.939   0.300
 2480SOL    HW1 7259   2.000   2.928   0.291
 2480SOL    HW2 7260   1.861   2.853   0.332
 2481SOL     OW 7261   2.737   3.508   0.337
 2481SOL    HW1 7262   2.660   3.473   0.283
 2481SOL    HW2 7263   2.705   3.579   0.399
 2482SOL     OW 7264   2.092   2.490   1.975
 2482SOL    HW1 7265   1.999   2.488   2.012
 2482SOL    HW2 7266   2.093   2.451   1.883
 2483SOL     OW 7267   1.881   2.230   2.509
 2483SOL    HW1 7268   1.799   2.273   2.548
 2483SOL    HW2 7269   1.853   2.157   2.446
 2484SOL     OW 7270   2.431   3.137   3.027
 2484SOL    HW1 7271   2.338   3.130   2.990
 2484SOL    HW2 7272   2.442   3.226   3.071
 2485SOL     OW 7273   3.417   3.373   2.565
 2485SOL    HW1 7274   3.360   3.357   2.646
 2485SOL    HW2 7275   3.358   3.383   2.485
 2486SOL     OW 7276   2.630   3.006   2.885
 2486SOL    HW1 7277   2.552   3.023   2.945
 2486SOL    HW2 7278   2.664   3.093   2.849
 2487SOL     OW 7279   2.712   2.660   3.685
 2487SOL    HW1 7280   2.708   2.736   3.750
 2487SOL    HW2 7281   2.734   2.696   3.594
 2488SOL     OW 7282   2.548   3.023   3.665
 2488SOL    HW1 7283   2.608   3.102   3.679
 2488SOL    HW2 7284   2.462   3.054   3.624
 2489SOL     OW 7285   2.197   3.297   2.923
 2489SOL    HW1 7286   2.119   3.266   2.870
 2489SOL    HW2 7287   2.255   3.355   2.866
 2490SOL     OW 7288   3.322   3.367   3.201
 2490SOL    HW1 7289   3.346   3.461   3.227
 2490SOL    HW2 7290   3.306   3.313   3.283
 2491SOL     OW 7291   2.300   2.254   3.361
 2491SOL    HW1 7292   2.382   2.198   3.370
 2491SOL    HW2 7293   2.219   2.196   3.365
 2492SOL     OW 7294   2.093   3.575   2.345
 2492SOL    HW1 7295   2.127   3.652   2.399
 2492SOL    HW2 7296   2.137   3.575   2.255
 2493SOL     OW 7297   2.989   3.203   3.552
 2493SOL    HW1 7298   3.036   3.203   3.640
 2493SOL    HW2 7299   2.941   3.116   3.541
 2494SOL     OW 7300   2.092   3.296   2.400
 2494SOL    HW1 7301   2.066   3.392   2.400
 2494SOL    HW2 7302   2.021   3.242   2.445
 2495SOL     OW 7303   2.482   3.648   3.301
 2495SOL    HW1 7304   2.390   3.631   3.336
 2495SOL    HW2 7305   2.510   3.740   3.327
 2496SOL     OW 7306   2.468   2.826   1.985
 2496SOL    HW1 7307   2.475   2.910   1.931
 2496SOL    HW2 7308   2.514   2.839   2.073
 2497SOL     OW 7309   3.456   1.976   3.342
 2497SOL    HW1 7310   3.438   2.043   3.270
 2497SOL    HW2 7311   3.453   2.022   3.431
 2498SOL     OW 7312   3.704   3.629   2.221
 2498SOL    HW1 7313   3.758   3.600   2.301
 2498SOL    HW2 7314   3.734   3.719   2.192
 2499SOL     OW 7315   1.889   3.458   1.979
 2499SOL    HW1 7316   1.870   3.362   2.000
 2499SOL    HW2 7317   1.856   3.516   2.054
 2500SOL     OW 7318   1.975   2.599   3.459
 2500SOL    HW1 7319   2.063   2.586   3.504
 2500SOL    HW2 7320   1.962   2.696   3.437
 2501SOL     OW 7321   2.475   3.227   2.588
 2501SOL    HW1 7322   2.426   3.140   2.597
 2501SOL    HW2 7323   2.452   3.270   2.501
 2502SOL     OW 7324   3.155   3.090   3.285
 2502SOL    HW1 7325   3.192   3.017   3.227
 2502SOL    HW2 7326   3.207   3.095   3.370
 2503SOL     OW 7327   2.671   1.866   2.364
 2503SOL    HW1 7328   2.711   1.957   2.355
 2503SOL    HW2 7329   2.571   1.874   2.370
 2504SOL     OW 7330   2.059   2.838   3.126
 2504SOL    HW1 7331   2.148   2.793   3.112
 2504SOL    HW2 7332   1.986   2.773   3.107
 2505SOL     OW 7333   3.387   2.861   2.052
 2505SOL    HW1 7334   3.324   2.785   2.065
 2505SOL    HW2 7335   3.435   2.879   2.138
 2506SOL     OW 7336   3.049   3.654   3.478
 2506SOL    HW1 7337   3.073   3.714   3.402
 2506SOL    HW2 7338   3.056   3.559   3.448
 2507SOL     OW 7339   2.179   2.113   3.663
 2507SOL    HW1 7340   2.250   2.184   3.669
 2507SOL    HW2 7341   2.091   2.152   3.691
 2508SOL     OW 7342   3.328   3.279   2.815
 2508SOL    HW1 7343   3.269   3.285   2.895
 2508SOL    HW2 7344   3.313   3.191   2.769
 2509SOL     OW 7345   3.529   3.576   2.434
 2509SOL    HW1 7346   3.488   3.553   2.346
 2509SOL    HW2 7347   3.511   3.502   2.499
 2510SOL     OW 7348   3.143   2.207   2.806
 2510SOL    HW1 7349   3.057   2.157   2.793
 2510SOL    HW2 7350   3.205   2.153   2.862
 2511SOL     OW 7351   3.438   3.524   2.169
 2511SOL    HW1 7352   3.527   3.570   2.172
 2511SOL    HW2 7353   3.417   3.500   2.074
 2512SOL     OW 7354   2.669   2.467   3.327
 2512SOL    HW1 7355   2.622   2.464   3.416
 2512SOL    HW2 7356   2.618   2.412   3.261
 2513SOL     OW 7357   3.256   2.331   3.536
 2513SOL    HW1 7358   3.236   2.374   3.624
 2513SOL    HW2 7359   3.334   2.269   3.545
 2514SOL     OW 7360   2.835   2.752   3.434
 2514SOL    HW1 7361   2.881   2.668   3.405
 2514SOL    HW2 7362   2.779   2.786   3.359
 2515SOL     OW 7363   2.853   2.272   3.104
 2515SOL    HW1 7364   2.776   2.306   3.158
 2515SOL    HW2 7365   2.819   2.221   3.025
 2516SOL     OW 7366   1.992   3.683   3.433
 2516SOL    HW1 7367   1.982   3.668   3.532
 2516SOL    HW2 7368   1.906   3.719   3.397
 2517SOL     OW 7369   2.727   2.210   2.057
 2517SOL    HW1 7370   2.786   2.273   2.008
 2517SOL    HW2 7371   2.746   2.116   2.028
 2518SOL     OW 7372   3.581   2.447   3.693
 2518SOL    HW1 7373   3.555   2.536   3.657
 2518SOL    HW2 7374   3.579   2.379   3.620
 2519SOL     OW 7375   2.870   3.318   2.339
 2519SOL    HW1 7376   2.824   3.390   2.287
 2519SOL    HW2 7377   2.866   3.338   2.437
 2520SOL     OW 7378   2.213   3.663   2.715
 2520SOL    HW1 7379   2.263   3.577   2.721
 2520SOL    HW2 7380   2.278   3.740   2.712
 2521SOL     OW 7381   3.089   3.412   3.368
 2521SOL    HW1 7382   3.095   3.335   3.432
 2521SOL    HW2 7383   3.037   3.386   3.288
 2522SOL     OW 7384   2.323   3.128   3.589
 2522SOL    HW1 7385   2.273   3.129   3.503
 2522SOL    HW2 7386   2.260   3.110   3.665
 2523SOL     OW 7387   2.973   3.638   2.099
 2523SOL    HW1 7388   2.913   3.576   2.149
 2523SOL    HW2 7389   3.004   3.594   2.014
 2524SOL     OW 7390   2.064   2.147   3.360
 2524SOL    HW1 7391   1.984   2.207   3.347
 2524SOL    HW2 7392   2.054   2.098   3.446
 2525SOL     OW 7393   3.494   3.239   1.943
 2525SOL    HW1 7394   3.462   3.333   1.933
 2525SOL    HW2 7395   3.418   3.176   1.931
 2526SOL     OW 7396   2.326   3.605   2.185
 2526SOL    HW1 7397   2.359   3.644   2.271
 2526SOL    HW2 7398   2.402   3.598   2.120
 2527SOL     OW 7399   3.262   1.969   2.288
 2527SOL    HW1 7400   3.238   1.932   2.198
 2527SOL    HW2 7401   3.361   1.985   2.292
 2528SOL     OW 7402   2.111   3.647   3.103
 2528SOL    HW1 7403   2.168   3.582   3.153
 2528SOL    HW2 7404   2.095   3.614   3.010
 2529SOL     OW 7405   2.802   3.560   2.766
 2529SOL    HW1 7406   2.882   3.503   2.787
 2529SOL    HW2 7407   2.753   3.520   2.689
 2530SOL     OW 7408   3.409   2.084   3.591
 2530SOL    HW1 7409   3.404   2.121   3.683
 2530SOL    HW2 7410   3.337   2.015   3.579
 2531SOL     OW 7411   2.476   1.984   1.979
 2531SOL    HW1 7412   2.574   1.962   1.986
 2531SOL    HW2 7413   2.445   1.967   1.886
 2532SOL     OW 7414   2.643   2.126   3.611
 2532SOL    HW1 7415   2.710   2.065   3.654
 2532SOL    HW2 7416   2.570   2.145   3.676
 2533SOL     OW 7417   2.750   3.376   3.057
 2533SOL    HW1 7418   2.727   3.351   2.963
 2533SOL    HW2 7419   2.811   3.307   3.096
 2534SOL     OW 7420   3.213   2.452   3.295
 2534SOL    HW1 7421   3.241   2.409   3.380
 2534SOL    HW2 7422   3.238   2.548   3.296
 2535SOL     OW 7423   2.665   3.264   2.786
 2535SOL    HW1 7424   2.755   3.278   2.744
 2535SOL    HW2 7425   2.594   3.266   2.715
 2536SOL     OW 7426   2.784   2.365   2.761
 2536SOL    HW1 7427   2.759   2.356   2.665
 2536SOL    HW2 7428   2.832   2.283   2.792
 2537SOL     OW 7429   2.401   1.926   2.374
 2537SOL    HW1 7430   2.320   1.927   2.432
 2537SOL    HW2 7431   2.404   2.009   2.319
 2538SOL     OW 7432   3.296   3.050   1.903
 2538SOL    HW1 7433   3.328   2.974   1.960
 2538SOL    HW2 7434   3.204   3.077   1.933
 2539SOL     OW 7435   2.159   1.897   2.033
 2539SOL    HW1 7436   2.208   1.981   2.012
 2539SOL    HW2 7437   2.221   1.832   2.078
 2540SOL     OW 7438   2.938   2.545   3.326
 2540SOL    HW1 7439   2.858   2.484   3.329
 2540SOL    HW2 7440   3.019   2.492   3.302
 2541SOL     OW 7441   3.089   3.432   2.655
 2541SOL    HW1 7442   3.110   3.506   2.590
 2541SOL    HW2 7443   3.157   3.432   2.728
 2542SOL     OW 7444   2.321   3.014   2.603
 2542SOL    HW1 7445   2.250   2.987   2.668
 2542SOL    HW2 7446   2.295   2.986   2.510
 2543SOL     OW 7447   3.133   3.659   2.453
 2543SOL    HW1 7448   3.177   3.723   2.389
 2543SOL    HW2 7449   3.083   3.711   2.523
 2544SOL     OW 7450   2.894   2.411   1.878
 2544SOL    HW1 7451   2.853   2.493   1.839
 2544SOL    HW2 7452   2.958   2.437   1.951
 2545SOL     OW 7453   1.940   2.418   3.248
 2545SOL    HW1 7454   2.032   2.417   3.207
 2545SOL    HW2 7455   1.934   2.492   3.315
 2546SOL     OW 7456   2.879   1.901   2.615
 2546SOL    HW1 7457   2.807   1.906   2.546
 2546SOL    HW2 7458   2.855   1.832   2.684
 2547SOL     OW 7459   3.291   3.035   2.729
 2547SOL    HW1 7460   3.236   2.951   2.722
 2547SOL    HW2 7461   3.317   3.064   2.637
 2548SOL     OW 7462   3.328   2.452   2.854
 2548SOL    HW1 7463   3.298   2.357   2.861
 2548SOL    HW2 7464   3.401   2.468   2.920
 2549SOL     OW 7465   2.350   3.247   2.036
 2549SOL    HW1 7466   2.263   3.232   2.083
 2549SOL    HW2 7467   2.333   3.273   1.941
 2550SOL     OW 7468   3.526   3.142   2.519
 2550SOL    HW1 7469   3.625   3.150   2.533
 2550SOL    HW2 7470   3.481   3.226   2.550
 2551SOL     OW 7471   2.389   2.118   2.190
 2551SOL    HW1 7472   2.416   2.059   2.115
 2551SOL    HW2 7473   2.389   2.213   2.159
 2552SOL     OW 7474   3.616   3.085   3.450
 2552SOL    HW1 7475   3.707   3.046   3.437
 2552SOL    HW2 7476   3.624   3.181   3.474
 2553SOL     OW 7477   2.926   3.209   3.202
 2553SOL    HW1 7478   2.846   3.186   3.257
 2553SOL    HW2 7479   3.009   3.183   3.251
 2554SOL     OW 7480   3.454   3.491   3.487
 2554SOL    HW1 7481   3.481   3.525   3.397
 2554SOL    HW2 7482   3.533   3.453   3.533
 2555SOL     OW 7483   2.973   3.057   2.962
 2555SOL    HW1 7484   2.933   3.101   3.043
 2555SOL    HW2 7485   2.932   3.094   2.879
 2556SOL     OW 7486   3.500   2.961   2.941
 2556SOL    HW1 7487   3.505   3.042   3.000
 2556SOL    HW2 7488   3.414   2.963   2.890
 2557SOL     OW 7489   2.777   1.951   3.264
 2557SOL    HW1 7490   2.802   1.931   3.169
 2557SOL    HW2 7491   2.849   2.007   3.306
 2558SOL     OW 7492   2.842   2.978   3.581
 2558SOL    HW1 7493   2.743   2.984   3.591
 2558SOL    HW2 7494   2.865   2.898   3.525
 2559SOL     OW 7495   2.567   2.912   2.230
 2559SOL    HW1 7496   2.553   2.919   2.329
 2559SOL    HW2 7497   2.651   2.861   2.212
 2560SOL     OW 7498   2.272   2.675   3.113
 2560SOL    HW1 7499   2.358   2.687   3.163
 2560SOL    HW2 7500   2.230   2.588   3.140
 2561SOL     OW 7501   3.136   2.248   3.124
 2561SOL    HW1 7502   3.157   2.322   3.188
 2561SOL    HW2 7503   3.047   2.265   3.081
 2562SOL     OW 7504   1.926   3.426   3.193
 2562SOL    HW1 7505   1.880   3.508   3.159
 2562SOL    HW2 7506   2.024   3.445   3.202
 2563SOL     OW 7507   3.114   3.210   2.250
 2563SOL    HW1 7508   3.164   3.287   2.290
 2563SOL    HW2 7509   3.019   3.212   2.282
 2564SOL     OW 7510   3.134   3.307   3.004
 2564SOL    HW1 7511   3.181   3.320   3.091
 2564SOL    HW2 7512   3.068   3.233   3.013
 2565SOL     OW 7513   2.216   3.372   3.191
 2565SOL    HW1 7514   2.195   3.328   3.104
 2565SOL    HW2 7515   2.313   3.398   3.194
 2566SOL     OW 7516   2.264   2.613   3.460
 2566SOL    HW1 7517   2.332   2.668   3.413
 2566SOL    HW2 7518   2.304   2.525   3.487
 2567SOL     OW 7519   3.449   2.641   3.532
 2567SOL    HW1 7520   3.357   2.679   3.527
 2567SOL    HW2 7521   3.509   2.688   3.467
 2568SOL     OW 7522   2.875   1.967   3.632
 2568SOL    HW1 7523   2.881   2.052   3.580
 2568SOL    HW2 7524   2.907   1.891   3.575
 2569SOL     OW 7525   2.366   1.912   3.602
 2569SOL    HW1 7526   2.324   1.855   3.532
 2569SOL    HW2 7527   2.300   1.981   3.634
 2570SOL     OW 7528   2.435   2.732   2.891
 2570SOL    HW1 7529   2.479   2.821   2.882
 2570SOL    HW2 7530   2.372   2.732   2.968
 2571SOL     OW 7531   3.222   2.724   2.907
 2571SOL    HW1 7532   3.147   2.724   2.841
 2571SOL    HW2 7533   3.259   2.632   2.916
 2572SOL     OW 7534   2.169   2.075   3.093
 2572SOL    HW1 7535   2.146   2.112   3.183
 2572SOL    HW2 7536   2.139   1.980   3.087
 2573SOL     OW 7537   1.899   3.172   3.144
 2573SOL    HW1 7538   1.952   3.123   3.212
 2573SOL    HW2 7539   1.921   3.270   3.149
 2574SOL     OW 7540   3.590   2.797   3.716
 2574SOL    HW1 7541   3.544   2.790   3.627
 2574SOL    HW2 7542   3.528   2.841   3.782
 2575SOL     OW 7543   2.169   1.925   2.480
 2575SOL    HW1 7544   2.158   2.019   2.513
 2575SOL    HW2 7545   2.164   1.862   2.557
 2576SOL     OW 7546   2.842   3.435   3.562
 2576SOL    HW1 7547   2.822   3.479   3.474
 2576SOL    HW2 7548   2.881   3.344   3.546
 2577SOL     OW 7549   3.721   3.380   3.467
 2577SOL    HW1 7550   3.735   3.407   3.372
 2577SOL    HW2 7551   3.804   3.402   3.520
 2578SOL     OW 7552   2.212   2.760   3.666
 2578SOL    HW1 7553   2.288   2.804   3.714
 2578SOL    HW2 7554   2.247   2.713   3.584
 2579SOL     OW 7555   3.402   2.136   1.987
 2579SOL    HW1 7556   3.341   2.061   2.010
 2579SOL    HW2 7557   3.424   2.188   2.070
 2580SOL     OW 7558   3.165   2.700   1.904
 2580SOL    HW1 7559   3.199   2.607   1.919
 2580SOL    HW2 7560   3.183   2.727   1.809
 2581SOL     OW 7561   2.930   3.195   2.711
 2581SOL    HW1 7562   2.937   3.111   2.656
 2581SOL    HW2 7563   2.992   3.264   2.675
 2582SOL     OW 7564   3.000   2.242   3.540
 2582SOL    HW1 7565   2.955   2.305   3.604
 2582SOL    HW2 7566   3.093   2.273   3.523
 2583SOL     OW 7567   3.022   2.069   3.339
 2583SOL    HW1 7568   3.022   2.133   3.416
 2583SOL    HW2 7569   3.050   2.117   3.256
 2584SOL     OW 7570   1.870   3.188   2.062
 2584SOL    HW1 7571   1.777   3.209   2.031
 2584SOL    HW2 7572   1.880   3.089   2.075
 2585SOL     OW 7573   1.950   3.663   2.789
 2585SOL    HW1 7574   1.908   3.577   2.762
 2585SOL    HW2 7575   2.044   3.666   2.755
 2586SOL     OW 7576   2.366   3.430   2.772
 2586SOL    HW1 7577   2.432   3.504   2.781
 2586SOL    HW2 7578   2.410   3.351   2.730
 2587SOL     OW 7579   2.864   2.658   3.100
 2587SOL    HW1 7580   2.905   2.626   3.186
 2587SOL    HW2 7581   2.768   2.631   3.097
 2588SOL     OW 7582   2.051   2.382   3.584
 2588SOL    HW1 7583   2.110   2.342   3.514
 2588SOL    HW2 7584   1.993   2.453   3.543
 2589SOL     OW 7585   3.231   2.812   3.522
 2589SOL    HW1 7586   3.270   2.901   3.542
 2589SOL    HW2 7587   3.241   2.792   3.425
 2590SOL     OW 7588   2.677   2.434   2.187
 2590SOL    HW1 7589   2.684   2.345   2.141
 2590SOL    HW2 7590   2.583   2.468   2.179
 2591SOL     OW 7591   3.519   2.466   3.068
 2591SOL    HW1 7592   3.481   2.397   3.130
 2591SOL    HW2 7593   3.601   2.430   3.024
 2592SOL     OW 7594   2.114   3.426   3.606
 2592SOL    HW1 7595   2.084   3.483   3.682
 2592SOL    HW2 7596   2.107   3.329   3.632
 2593SOL     OW 7597   2.792   3.540   3.327
 2593SOL    HW1 7598   2.768   3.522   3.232
 2593SOL    HW2 7599   2.822   3.634   3.337
 2594SOL     OW 7600   2.335   2.362   2.053
 2594SOL    HW1 7601   2.396   2.442   2.057
 2594SOL    HW2 7602   2.240   2.393   2.060
 2595SOL     OW 7603   2.021   2.999   3.328
 2595SOL    HW1 7604   2.043   2.938   3.404
 2595SOL    HW2 7605   2.031   2.950   3.242
 2596SOL     OW 7606   3.209   2.921   3.096
 2596SOL    HW1 7607   3.233   2.858   3.022
 2596SOL    HW2 7608   3.119   2.961   3.078
 2597SOL     OW 7609   3.621   3.609   3.016
 2597SOL    HW1 7610   3.682   3.639   2.943
 2597SOL    HW2 7611   3.583   3.520   2.994
 2598SOL     OW 7612   3.114   3.593   2.990
 2598SOL    HW1 7613   3.198   3.598   2.936
 2598SOL    HW2 7614   3.091   3.497   3.008
 2599SOL     OW 7615   2.550   3.524   3.578
 2599SOL    HW1 7616   2.494   3.605   3.587
 2599SOL    HW2 7617   2.602   3.528   3.492
 2600SOL     OW 7618   3.588   1.997   2.385
 2600SOL    HW1 7619   3.661   1.980   2.318
 2600SOL    HW2 7620   3.557   1.910   2.423
 2601SOL     OW 7621   3.250   3.435   2.339
 2601SOL    HW1 7622   3.317   3.447   2.265
 2601SOL    HW2 7623   3.210   3.524   2.362
 2602SOL     OW 7624   1.992   3.656   3.713
 2602SOL    HW1 7625   1.951   3.582   3.766
 2602SOL    HW2 7626   2.056   3.707   3.771
 2603SOL     OW 7627   2.692   3.135   3.284
 2603SOL    HW1 7628   2.687   3.168   3.379
 2603SOL    HW2 7629   2.606   3.154   3.238
 2604SOL     OW 7630   2.534   3.478   2.016
 2604SOL    HW1 7631   2.543   3.488   1.917
 2604SOL    HW2 7632   2.494   3.389   2.037
 2605SOL     OW 7633   3.512   3.582   3.256
 2605SOL    HW1 7634   3.565   3.592   3.172
 2605SOL    HW2 7635   3.485   3.672   3.290
 2606SOL     OW 7636   3.703   2.037   2.825
 2606SOL    HW1 7637   3.742   1.952   2.789
 2606SOL    HW2 7638   3.605   2.039   2.806
 2607SOL     OW 7639   3.056   3.474   1.893
 2607SOL    HW1 7640   3.062   3.381   1.930
 2607SOL    HW2 7641   2.997   3.474   1.813
 2608SOL     OW 7642   2.684   2.864   3.234
 2608SOL    HW1 7643   2.724   2.863   3.142
 2608SOL    HW2 7644   2.694   2.956   3.274
 2609SOL     OW 7645   2.778   2.772   2.153
 2609SOL    HW1 7646   2.841   2.810   2.085
 2609SOL    HW2 7647   2.818   2.689   2.192
 2610SOL     OW 7648   3.366   3.469   1.906
 2610SOL    HW1 7649   3.274   3.506   1.913
 2610SOL    HW2 7650   3.404   3.489   1.816
 2611SOL     OW 7651   2.234   3.150   3.352
 2611SOL    HW1 7652   2.221   3.243   3.318
 2611SOL    HW2 7653   2.150   3.098   3.339
 2612SOL     OW 7654   3.476   3.154   3.151
 2612SOL    HW1 7655   3.536   3.157   3.231
 2612SOL    HW2 7656   3.401   3.218   3.164
 2613SOL     OW 7657   2.876   2.098   2.833
 2613SOL    HW1 7658   2.868   2.062   2.740
 2613SOL    HW2 7659   2.874   2.022   2.898
 2614SOL     OW 7660   2.452   3.349   2.353
 2614SOL    HW1 7661   2.494   3.291   2.283
 2614SOL    HW2 7662   2.408   3.428   2.309
 2615SOL     OW 7663   3.571   2.247   3.243
 2615SOL    HW1 7664   3.644   2.316   3.247
 2615SOL    HW2 7665   3.599   2.172   3.184
 2616SOL     OW 7666   2.117   3.210   2.152
 2616SOL    HW1 7667   2.021   3.211   2.125
 2616SOL    HW2 7668   2.129   3.263   2.236
 2617SOL     OW 7669   1.967   2.875   3.588
 2617SOL    HW1 7670   1.890   2.842   3.642
 2617SOL    HW2 7671   2.052   2.845   3.630
 2618SOL     OW 7672   2.534   2.065   3.351
 2618SOL    HW1 7673   2.624   2.049   3.311
 2618SOL    HW2 7674   2.542   2.070   3.450
 2619SOL     OW 7675   1.937   2.207   1.895
 2619SOL    HW1 7676   1.845   2.179   1.866
 2619SOL    HW2 7677   1.968   2.284   1.839
 2620SOL     OW 7678   3.302   2.718   3.260
 2620SOL    HW1 7679   3.245   2.770   3.197
 2620SOL    HW2 7680   3.398   2.730   3.236
 2621SOL     OW 7681   1.934   2.028   2.180
 2621SOL    HW1 7682   1.917   2.111   2.126
 2621SOL    HW2 7683   2.024   1.991   2.158
 2622SOL     OW 7684   3.045   3.197   1.981
 2622SOL    HW1 7685   2.946   3.186   1.983
 2622SOL    HW2 7686   3.079   3.212   2.074
 2623SOL     OW 7687   2.475   2.704   3.293
 2623SOL    HW1 7688   2.531   2.785   3.276
 2623SOL    HW2 7689   2.534   2.624   3.296
 2624SOL     OW 7690   3.355   3.629   2.821
 2624SOL    HW1 7691   3.388   3.693   2.752
 2624SOL    HW2 7692   3.421   3.623   2.896
 2625SOL     OW 7693   2.578   2.427   3.570
 2625SOL    HW1 7694   2.597   2.492   3.644
 2625SOL    HW2 7695   2.638   2.347   3.579
 2626SOL     OW 7696   3.312   3.082   3.495
 2626SOL    HW1 7697   3.303   3.072   3.594
 2626SOL    HW2 7698   3.408   3.075   3.469
 2627SOL     OW 7699   2.252   3.603   3.422
 2627SOL    HW1 7700   2.161   3.644   3.420
 2627SOL    HW2 7701   2.245   3.509   3.454
 2628SOL     OW 7702   3.536   2.745   3.116
 2628SOL    HW1 7703   3.509   2.656   3.079
 2628SOL    HW2 7704   3.537   2.813   3.043
 2629SOL     OW 7705   3.639   2.204   3.504
 2629SOL    HW1 7706   3.622   2.235   3.410
 2629SOL    HW2 7707   3.555   2.167   3.542
 2630SOL     OW 7708   3.592   2.796   3.379
 2630SOL    HW1 7709   3.630   2.887   3.394
 2630SOL    HW2 7710   3.584   2.779   3.280
 2631SOL     OW 7711   2.721   3.236   1.878
 2631SOL    HW1 7712   2.675   3.251   1.966
 2631SOL    HW2 7713   2.765   3.321   1.848
 2632SOL     OW 7714   2.523   3.652   2.815
 2632SOL    HW1 7715   2.477   3.740   2.802
 2632SOL    HW2 7716   2.622   3.664   2.808
 2633SOL     OW 7717   2.945   2.846   1.949
 2633SOL    HW1 7718   2.922   2.899   1.867
 2633SOL    HW2 7719   3.026   2.790   1.930
 2634SOL     OW 7720   3.723   3.431   2.713
 2634SOL    HW1 7721   3.652   3.419   2.643
 2634SOL    HW2 7722   3.724   3.352   2.773
 2635SOL     OW 7723   2.083   3.176   3.706
 2635SOL    HW1 7724   2.018   3.103   3.685
 2635SOL    HW2 7725   2.087   3.190   3.804
 2636SOL     OW 7726   2.534   3.253   3.486
 2636SOL    HW1 7727   2.456   3.203   3.524
 2636SOL    HW2 7728   2.531   3.348   3.517
 2637SOL     OW 7729   3.686   2.054   3.089
 2637SOL    HW1 7730   3.682   1.964   3.133
 2637SOL    HW2 7731   3.689   2.043   2.990
 2638SOL     OW 7732   3.567   3.349   2.966
 2638SOL    HW1 7733   3.474   3.324   2.939
 2638SOL    HW2 7734   3.593   3.299   3.048
 2639SOL     OW 7735   2.179   2.409   3.142
 2639SOL    HW1 7736   2.217   2.350   3.214
 2639SOL    HW2 7737   2.219   2.383   3.054
 2640SOL     OW 7738   2.674   3.448   2.549
 2640SOL    HW1 7739   2.706   3.458   2.455
 2640SOL    HW2 7740   2.595   3.386   2.551
 2641SOL     OW 7741   3.286   2.076   2.974
 2641SOL    HW1 7742   3.338   2.011   3.029
 2641SOL    HW2 7743   3.237   2.139   3.035
 2642SOL     OW 7744   2.863   1.896   3.016
 2642SOL    HW1 7745   2.800   1.824   2.985
 2642SOL    HW2 7746   2.956   1.860   3.016
 2643SOL     OW 7747   2.632   3.192   2.163
 2643SOL    HW1 7748   2.586   3.105   2.180
 2643SOL    HW2 7749   2.723   3.189   2.204
 2644SOL     OW 7750   2.480   3.429   3.146
 2644SOL    HW1 7751   2.475   3.511   3.203
 2644SOL    HW2 7752   2.569   3.426   3.101
 2645SOL     OW 7753   3.214   1.914   2.030
 2645SOL    HW1 7754   3.249   1.873   1.946
 2645SOL    HW2 7755   3.124   1.876   2.050
 2646SOL     OW 7756   3.162   2.315   2.553
 2646SOL    HW1 7757   3.103   2.395   2.557
 2646SOL    HW2 7758   3.177   2.280   2.646
 2647SOL     OW 7759   3.455   2.083   2.744
 2647SOL    HW1 7760   3.371   2.082   2.798
 2647SOL    HW2 7761   3.457   2.166   2.688
 2648SOL     OW 7762   2.737   3.508   2.199
 2648SOL    HW1 7763   2.660   3.473   2.145
 2648SOL    HW2 7764   2.705   3.579   2.261
 2649SOL     OW 7765   2.092   2.490   3.837
 2649SOL    HW1 7766   1.999   2.488   3.874
 2649SOL    HW2 7767   2.093   2.451   3.745
 2650SOL     OW 7768   2.087   2.137   4.720
 2650SOL    HW1 7769   2.122   2.120   4.812
 2650SOL    HW2 7770   1.999   2.092   4.708
 2651SOL     OW 7771   1.881   2.230   4.371
 2651SOL    HW1 7772   1.799   2.273   4.410
 2651SOL    HW2 7773   1.853   2.157   4.308
 2652SOL     OW 7774   2.431   3.137   4.889
 2652SOL    HW1 7775   2.338   3.130   4.852
 2652SOL    HW2 7776   2.442   3.226   4.933
 2653SOL     OW 7777   3.417   3.373   4.427
 2653SOL    HW1 7778   3.360   3.357   4.508
 2653SOL    HW2 7779   3.358   3.383   4.347
 2654SOL     OW 7780   2.997   2.565   4.441
 2654SOL    HW1 7781   3.054   2.643   4.416
 2654SOL    HW2 7782   2.937   2.591   4.517
 2655SOL     OW 7783   3.617   2.469   3.955
 2655SOL    HW1 7784   3.605   2.456   3.856
 2655SOL    HW2 7785   3.587   2.388   4.004
 2656SOL     OW 7786   2.630   3.006   4.747
 2656SOL    HW1 7787   2.552   3.023   4.807
 2656SOL    HW2 7788   2.664   3.093   4.711
 2657SOL     OW 7789   2.547   2.874   4.389
 2657SOL    HW1 7790   2.616   2.858   4.459
 2657SOL    HW2 7791   2.474   2.931   4.427
 2658SOL     OW 7792   2.197   3.297   4.785
 2658SOL    HW1 7793   2.119   3.266   4.732
 2658SOL    HW2 7794   2.255   3.355   4.728
 2659SOL     OW 7795   3.465   2.309   4.461
 2659SOL    HW1 7796   3.391   2.355   4.411
 2659SOL    HW2 7797   3.516   2.377   4.514
 2660SOL     OW 7798   2.093   3.575   4.207
 2660SOL    HW1 7799   2.127   3.652   4.261
 2660SOL    HW2 7800   2.137   3.575   4.117
 2661SOL     OW 7801   2.092   3.296   4.262
 2661SOL    HW1 7802   2.066   3.392   4.262
 2661SOL    HW2 7803   2.021   3.242   4.307
 2662SOL     OW 7804   2.102   2.953   4.610
 2662SOL    HW1 7805   2.116   2.869   4.662
 2662SOL    HW2 7806   2.047   3.017   4.665
 2663SOL     OW 7807   2.482   3.648   5.163
 2663SOL    HW1 7808   2.390   3.631   5.198
 2663SOL    HW2 7809   2.510   3.740   5.189
 2664SOL     OW 7810   2.468   2.826   3.847
 2664SOL    HW1 7811   2.475   2.910   3.793
 2664SOL    HW2 7812   2.514   2.839   3.935
 2665SOL     OW 7813   1.984   2.505   4.287
 2665SOL    HW1 7814   1.939   2.417   4.304
 2665SOL    HW2 7815   1.983   2.559   4.371
 2666SOL     OW 7816   3.704   3.629   4.083
 2666SOL    HW1 7817   3.758   3.600   4.163
 2666SOL    HW2 7818   3.734   3.719   4.054
 2667SOL     OW 7819   1.889   3.458   3.841
 2667SOL    HW1 7820   1.870   3.362   3.862
 2667SOL    HW2 7821   1.856   3.516   3.916
 2668SOL     OW 7822   3.551   2.784   4.336
 2668SOL    HW1 7823   3.646   2.755   4.344
 2668SOL    HW2 7824   3.543   2.849   4.261
 2669SOL     OW 7825   3.503   2.970   4.156
 2669SOL    HW1 7826   3.589   2.972   4.104
 2669SOL    HW2 7827   3.517   3.017   4.244
 2670SOL     OW 7828   2.475   3.227   4.450
 2670SOL    HW1 7829   2.426   3.140   4.459
 2670SOL    HW2 7830   2.452   3.270   4.363
 2671SOL     OW 7831   2.671   1.866   4.226
 2671SOL    HW1 7832   2.711   1.957   4.217
 2671SOL    HW2 7833   2.571   1.874   4.232
 2672SOL     OW 7834   2.059   2.838   4.988
 2672SOL    HW1 7835   2.148   2.793   4.974
 2672SOL    HW2 7836   1.986   2.773   4.969
 2673SOL     OW 7837   3.387   2.861   3.914
 2673SOL    HW1 7838   3.324   2.785   3.927
 2673SOL    HW2 7839   3.435   2.879   4.000
 2674SOL     OW 7840   3.328   3.279   4.677
 2674SOL    HW1 7841   3.269   3.285   4.757
 2674SOL    HW2 7842   3.313   3.191   4.631
 2675SOL     OW 7843   3.529   3.576   4.296
 2675SOL    HW1 7844   3.488   3.553   4.208
 2675SOL    HW2 7845   3.511   3.502   4.361
 2676SOL     OW 7846   2.460   2.591   3.994
 2676SOL    HW1 7847   2.484   2.660   3.926
 2676SOL    HW2 7848   2.382   2.624   4.048
 2677SOL     OW 7849   3.143   2.207   4.668
 2677SOL    HW1 7850   3.057   2.157   4.655
 2677SOL    HW2 7851   3.205   2.153   4.724
 2678SOL     OW 7852   3.438   3.524   4.031
 2678SOL    HW1 7853   3.527   3.570   4.034
 2678SOL    HW2 7854   3.417   3.500   3.936
 2679SOL     OW 7855   2.853   2.272   4.966
 2679SOL    HW1 7856   2.776   2.306   5.020
 2679SOL    HW2 7857   2.819   2.221   4.887
 2680SOL     OW 7858   2.903   2.563   4.153
 2680SOL    HW1 7859   2.929   2.559   4.249
 2680SOL    HW2 7860   2.818   2.512   4.139
 2681SOL     OW 7861   1.938   2.673   4.513
 2681SOL    HW1 7862   2.037   2.661   4.522
 2681SOL    HW2 7863   1.914   2.768   4.534
 2682SOL     OW 7864   2.727   2.210   3.919
 2682SOL    HW1 7865   2.786   2.273   3.870
 2682SOL    HW2 7866   2.746   2.116   3.890
 2683SOL     OW 7867   3.224   3.006   4.269
 2683SOL    HW1 7868   3.307   2.977   4.221
 2683SOL    HW2 7869   3.175   3.073   4.213
 2684SOL     OW 7870   2.412   2.058   4.609
 2684SOL    HW1 7871   2.407   2.053   4.709
 2684SOL    HW2 7872   2.414   2.154   4.580
 2685SOL     OW 7873   2.870   3.318   4.201
 2685SOL    HW1 7874   2.824   3.390   4.149
 2685SOL    HW2 7875   2.866   3.338   4.299
 2686SOL     OW 7876   2.213   3.663   4.577
 2686SOL    HW1 7877   2.263   3.577   4.583
 2686SOL    HW2 7878   2.278   3.740   4.574
 2687SOL     OW 7879   3.657   2.928   4.597
 2687SOL    HW1 7880   3.595   2.913   4.521
 2687SOL    HW2 7881   3.605   2.939   4.682
 2688SOL     OW 7882   2.183   2.805   3.966
 2688SOL    HW1 7883   2.265   2.844   3.924
 2688SOL    HW2 7884   2.156   2.723   3.917
 2689SOL     OW 7885   3.320   2.597   4.452
 2689SOL    HW1 7886   3.315   2.532   4.527
 2689SOL    HW2 7887   3.400   2.656   4.465
 2690SOL     OW 7888   2.973   3.638   3.961
 2690SOL    HW1 7889   2.913   3.576   4.011
 2690SOL    HW2 7890   3.004   3.594   3.876
 2691SOL     OW 7891   3.494   3.239   3.805
 2691SOL    HW1 7892   3.462   3.333   3.795
 2691SOL    HW2 7893   3.418   3.176   3.793
 2692SOL     OW 7894   2.326   3.605   4.047
 2692SOL    HW1 7895   2.359   3.644   4.133
 2692SOL    HW2 7896   2.402   3.598   3.982
 2693SOL     OW 7897   3.262   1.969   4.150
 2693SOL    HW1 7898   3.238   1.932   4.060
 2693SOL    HW2 7899   3.361   1.985   4.154
 2694SOL     OW 7900   2.111   3.647   4.965
 2694SOL    HW1 7901   2.168   3.582   5.015
 2694SOL    HW2 7902   2.095   3.614   4.872
 2695SOL     OW 7903   2.802   3.560   4.628
 2695SOL    HW1 7904   2.882   3.503   4.649
 2695SOL    HW2 7905   2.753   3.520   4.551
 2696SOL     OW 7906   2.244   2.562   4.204
 2696SOL    HW1 7907   2.289   2.472   4.201
 2696SOL    HW2 7908   2.150   2.551   4.237
 2697SOL     OW 7909   2.476   1.984   3.841
 2697SOL    HW1 7910   2.574   1.962   3.848
 2697SOL    HW2 7911   2.445   1.967   3.748
 2698SOL     OW 7912   2.665   3.264   4.648
 2698SOL    HW1 7913   2.755   3.278   4.606
 2698SOL    HW2 7914   2.594   3.266   4.577
 2699SOL     OW 7915   2.784   2.365   4.623
 2699SOL    HW1 7916   2.759   2.356   4.527
 2699SOL    HW2 7917   2.832   2.283   4.654
 2700SOL     OW 7918   2.401   1.926   4.236
 2700SOL    HW1 7919   2.320   1.927   4.294
 2700SOL    HW2 7920   2.404   2.009   4.181
 2701SOL     OW 7921   3.296   3.050   3.765
 2701SOL    HW1 7922   3.328   2.974   3.822
 2701SOL    HW2 7923   3.204   3.077   3.795
 2702SOL     OW 7924   2.159   1.897   3.895
 2702SOL    HW1 7925   2.208   1.981   3.874
 2702SOL    HW2 7926   2.221   1.832   3.940
 2703SOL     OW 7927   2.797   2.098   4.204
 2703SOL    HW1 7928   2.749   2.139   4.126
 2703SOL    HW2 7929   2.896   2.096   4.185
 2704SOL     OW 7930   3.089   3.432   4.517
 2704SOL    HW1 7931   3.110   3.506   4.452
 2704SOL    HW2 7932   3.157   3.432   4.590
 2705SOL     OW 7933   2.321   3.014   4.465
 2705SOL    HW1 7934   2.250   2.987   4.530
 2705SOL    HW2 7935   2.295   2.986   4.372
 2706SOL     OW 7936   3.133   3.659   4.315
 2706SOL    HW1 7937   3.177   3.723   4.251
 2706SOL    HW2 7938   3.083   3.711   4.385
 2707SOL     OW 7939   2.894   2.411   3.740
 2707SOL    HW1 7940   2.853   2.493   3.701
 2707SOL    HW2 7941   2.958   2.437   3.813
 2708SOL     OW 7942   2.423   2.084   4.871
 2708SOL    HW1 7943   2.461   2.000   4.908
 2708SOL    HW2 7944   2.335   2.103   4.915
 2709SOL     OW 7945   2.728   2.316   4.366
 2709SOL    HW1 7946   2.696   2.388   4.304
 2709SOL    HW2 7947   2.752   2.235   4.313
 2710SOL     OW 7948   2.879   1.901   4.477
 2710SOL    HW1 7949   2.807   1.906   4.408
 2710SOL    HW2 7950   2.855   1.832   4.546
 2711SOL     OW 7951   3.291   3.035   4.591
 2711SOL    HW1 7952   3.236   2.951   4.584
 2711SOL    HW2 7953   3.317   3.064   4.499
 2712SOL     OW 7954   3.328   2.452   4.716
 2712SOL    HW1 7955   3.298   2.357   4.723
 2712SOL    HW2 7956   3.401   2.468   4.782
 2713SOL     OW 7957   3.719   2.695   4.101
 2713SOL    HW1 7958   3.761   2.631   4.165
 2713SOL    HW2 7959   3.681   2.644   4.023
 2714SOL     OW 7960   2.350   3.247   3.898
 2714SOL    HW1 7961   2.263   3.232   3.945
 2714SOL    HW2 7962   2.333   3.273   3.803
 2715SOL     OW 7963   3.526   3.142   4.381
 2715SOL    HW1 7964   3.625   3.150   4.395
 2715SOL    HW2 7965   3.481   3.226   4.412
 2716SOL     OW 7966   3.252   2.437   3.802
 2716SOL    HW1 7967   3.198   2.416   3.883
 2716SOL    HW2 7968   3.343   2.396   3.811
 2717SOL     OW 7969   2.389   2.118   4.052
 2717SOL    HW1 7970   2.416   2.059   3.977
 2717SOL    HW2 7971   2.389   2.213   4.021
 2718SOL     OW 7972   2.973   3.057   4.824
 2718SOL    HW1 7973   2.933   3.101   4.905
 2718SOL    HW2 7974   2.932   3.094   4.741
 2719SOL     OW 7975   3.500   2.961   4.803
 2719SOL    HW1 7976   3.505   3.042   4.862
 2719SOL    HW2 7977   3.414   2.963   4.752
 2720SOL     OW 7978   2.567   2.912   4.092
 2720SOL    HW1 7979   2.553   2.919   4.191
 2720SOL    HW2 7980   2.651   2.861   4.074
 2721SOL     OW 7981   2.272   2.675   4.975
 2721SOL    HW1 7982   2.358   2.687   5.025
 2721SOL    HW2 7983   2.230   2.588   5.002
 2722SOL     OW 7984   3.136   2.248   4.986
 2722SOL    HW1 7985   3.157   2.322   5.050
 2722SOL    HW2 7986   3.047   2.265   4.943
 2723SOL     OW 7987   2.229   2.962   4.225
 2723SOL    HW1 7988   2.222   3.045   4.169
 2723SOL    HW2 7989   2.233   2.882   4.165
 2724SOL     OW 7990   2.428   2.399   4.589
 2724SOL    HW1 7991   2.440   2.465   4.515
 2724SOL    HW2 7992   2.474   2.433   4.672
 2725SOL     OW 7993   3.114   3.210   4.112
 2725SOL    HW1 7994   3.164   3.287   4.152
 2725SOL    HW2 7995   3.019   3.212   4.144
 2726SOL     OW 7996   3.134   3.307   4.866
 2726SOL    HW1 7997   3.181   3.320   4.953
 2726SOL    HW2 7998   3.068   3.233   4.875
 2727SOL     OW 7999   3.444   2.501   4.196
 2727SOL    HW1 8000   3.413   2.562   4.269
 2727SOL    HW2 8001   3.494   2.553   4.127
 2728SOL     OW 8002   2.216   3.372   5.053
 2728SOL    HW1 8003   2.195   3.328   4.966
 2728SOL    HW2 8004   2.313   3.398   5.056
 2729SOL     OW 8005   2.435   2.732   4.753
 2729SOL    HW1 8006   2.479   2.821   4.744
 2729SOL    HW2 8007   2.372   2.732   4.830
 2730SOL     OW 8008   3.222   2.724   4.769
 2730SOL    HW1 8009   3.147   2.724   4.703
 2730SOL    HW2 8010   3.259   2.632   4.778
 2731SOL     OW 8011   3.071   2.387   3.999
 2731SOL    HW1 8012   3.084   2.303   4.053
 2731SOL    HW2 8013   3.042   2.461   4.059
 2732SOL     OW 8014   2.169   2.075   4.955
 2732SOL    HW1 8015   2.146   2.112   5.045
 2732SOL    HW2 8016   2.139   1.980   4.949
 2733SOL     OW 8017   1.899   3.172   5.006
 2733SOL    HW1 8018   1.952   3.123   5.074
 2733SOL    HW2 8019   1.921   3.270   5.011
 2734SOL     OW 8020   2.594   2.496   4.788
 2734SOL    HW1 8021   2.653   2.470   4.712
 2734SOL    HW2 8022   2.566   2.592   4.777
 2735SOL     OW 8023   2.169   1.925   4.342
 2735SOL    HW1 8024   2.158   2.019   4.375
 2735SOL    HW2 8025   2.164   1.862   4.419
 2736SOL     OW 8026   3.484   2.229   4.098
 2736SOL    HW1 8027   3.486   2.153   4.162
 2736SOL    HW2 8028   3.436   2.306   4.138
 2737SOL     OW 8029   2.885   2.628   4.690
 2737SOL    HW1 8030   2.900   2.649   4.786
 2737SOL    HW2 8031   2.855   2.533   4.681
 2738SOL     OW 8032   3.402   2.136   3.849
 2738SOL    HW1 8033   3.341   2.061   3.872
 2738SOL    HW2 8034   3.424   2.188   3.932
 2739SOL     OW 8035   3.165   2.700   3.766
 2739SOL    HW1 8036   3.199   2.607   3.781
 2739SOL    HW2 8037   3.183   2.727   3.671
 2740SOL     OW 8038   2.930   3.195   4.573
 2740SOL    HW1 8039   2.937   3.111   4.518
 2740SOL    HW2 8040   2.992   3.264   4.537
 2741SOL     OW 8041   2.181   2.672   4.673
 2741SOL    HW1 8042   2.274   2.708   4.678
 2741SOL    HW2 8043   2.175   2.587   4.725
 2742SOL     OW 8044   2.201   2.371   4.730
 2742SOL    HW1 8045   2.149   2.288   4.713
 2742SOL    HW2 8046   2.278   2.376   4.666
 2743SOL     OW 8047   3.022   2.069   5.201
 2743SOL    HW1 8048   3.022   2.133   5.278
 2743SOL    HW2 8049   3.050   2.117   5.118
 2744SOL     OW 8050   1.870   3.188   3.924
 2744SOL    HW1 8051   1.777   3.209   3.893
 2744SOL    HW2 8052   1.880   3.089   3.937
 2745SOL     OW 8053   1.950   3.663   4.651
 2745SOL    HW1 8054   1.908   3.577   4.624
 2745SOL    HW2 8055   2.044   3.666   4.617
 2746SOL     OW 8056   2.366   3.430   4.634
 2746SOL    HW1 8057   2.432   3.504   4.643
 2746SOL    HW2 8058   2.410   3.351   4.592
 2747SOL     OW 8059   2.864   2.658   4.962
 2747SOL    HW1 8060   2.905   2.626   5.048
 2747SOL    HW2 8061   2.768   2.631   4.959
 2748SOL     OW 8062   1.902   2.406   4.838
 2748SOL    HW1 8063   1.987   2.373   4.797
 2748SOL    HW2 8064   1.915   2.421   4.936
 2749SOL     OW 8065   2.677   2.434   4.049
 2749SOL    HW1 8066   2.684   2.345   4.003
 2749SOL    HW2 8067   2.583   2.468   4.041
 2750SOL     OW 8068   3.519   2.466   4.930
 2750SOL    HW1 8069   3.481   2.397   4.992
 2750SOL    HW2 8070   3.601   2.430   4.886
 2751SOL     OW 8071   2.533   2.326   4.993
 2751SOL    HW1 8072   2.499   2.237   4.963
 2751SOL    HW2 8073   2.559   2.380   4.913
 2752SOL     OW 8074   2.792   3.540   5.189
 2752SOL    HW1 8075   2.768   3.522   5.094
 2752SOL    HW2 8076   2.822   3.634   5.199
 2753SOL     OW 8077   2.335   2.362   3.915
 2753SOL    HW1 8078   2.396   2.442   3.919
 2753SOL    HW2 8079   2.240   2.393   3.922
 2754SOL     OW 8080   3.209   2.921   4.958
 2754SOL    HW1 8081   3.233   2.858   4.884
 2754SOL    HW2 8082   3.119   2.961   4.940
 2755SOL     OW 8083   3.164   2.717   4.033
 2755SOL    HW1 8084   3.078   2.686   4.075
 2755SOL    HW2 8085   3.160   2.703   3.934
 2756SOL     OW 8086   3.621   3.609   4.878
 2756SOL    HW1 8087   3.682   3.639   4.805
 2756SOL    HW2 8088   3.583   3.520   4.856
 2757SOL     OW 8089   3.114   3.593   4.852
 2757SOL    HW1 8090   3.198   3.598   4.798
 2757SOL    HW2 8091   3.091   3.497   4.870
 2758SOL     OW 8092   1.945   3.120   4.746
 2758SOL    HW1 8093   1.940   3.119   4.846
 2758SOL    HW2 8094   1.862   3.079   4.708
 2759SOL     OW 8095   3.588   1.997   4.247
 2759SOL    HW1 8096   3.661   1.980   4.180
 2759SOL    HW2 8097   3.557   1.910   4.285
 2760SOL     OW 8098   3.250   3.435   4.201
 2760SOL    HW1 8099   3.317   3.447   4.127
 2760SOL    HW2 8100   3.210   3.524   4.224
 2761SOL     OW 8101   3.142   2.789   4.396
 2761SOL    HW1 8102   3.202   2.708   4.398
 2761SOL    HW2 8103   3.182   2.858   4.336
 2762SOL     OW 8104   2.534   3.478   3.878
 2762SOL    HW1 8105   2.543   3.488   3.779
 2762SOL    HW2 8106   2.494   3.389   3.899
 2763SOL     OW 8107   3.512   3.582   5.118
 2763SOL    HW1 8108   3.565   3.592   5.034
 2763SOL    HW2 8109   3.485   3.672   5.152
 2764SOL     OW 8110   3.703   2.037   4.687
 2764SOL    HW1 8111   3.742   1.952   4.651
 2764SOL    HW2 8112   3.605   2.039   4.668
 2765SOL     OW 8113   2.125   2.188   4.444
 2765SOL    HW1 8114   2.046   2.239   4.410
 2765SOL    HW2 8115   2.116   2.173   4.542
 2766SOL     OW 8116   3.056   3.474   3.755
 2766SOL    HW1 8117   3.062   3.381   3.792
 2766SOL    HW2 8118   2.997   3.474   3.675
 2767SOL     OW 8119   2.684   2.864   5.096
 2767SOL    HW1 8120   2.724   2.863   5.004
 2767SOL    HW2 8121   2.694   2.956   5.136
 2768SOL     OW 8122   2.778   2.772   4.015
 2768SOL    HW1 8123   2.841   2.810   3.947
 2768SOL    HW2 8124   2.818   2.689   4.054
 2769SOL     OW 8125   3.366   3.469   3.768
 2769SOL    HW1 8126   3.274   3.506   3.775
 2769SOL    HW2 8127   3.404   3.489   3.678
 2770SOL     OW 8128   2.901   2.960   4.420
 2770SOL    HW1 8129   2.831   2.913   4.474
 2770SOL    HW2 8130   2.960   2.892   4.377
 2771SOL     OW 8131   2.876   2.098   4.695
 2771SOL    HW1 8132   2.868   2.062   4.602
 2771SOL    HW2 8133   2.874   2.022   4.760
 2772SOL     OW 8134   2.452   3.349   4.215
 2772SOL    HW1 8135   2.494   3.291   4.145
 2772SOL    HW2 8136   2.408   3.428   4.171
 2773SOL     OW 8137   3.571   2.247   5.105
 2773SOL    HW1 8138   3.644   2.316   5.109
 2773SOL    HW2 8139   3.599   2.172   5.046
 2774SOL     OW 8140   2.117   3.210   4.014
 2774SOL    HW1 8141   2.021   3.211   3.987
 2774SOL    HW2 8142   2.129   3.263   4.098
 2775SOL     OW 8143   1.937   2.207   3.757
 2775SOL    HW1 8144   1.845   2.179   3.728
 2775SOL    HW2 8145   1.968   2.284   3.701
 2776SOL     OW 8146   1.934   2.028   4.042
 2776SOL    HW1 8147   1.917   2.111   3.988
 2776SOL    HW2 8148   2.024   1.991   4.020
 2777SOL     OW 8149   3.045   3.197   3.843
 2777SOL    HW1 8150   2.946   3.186   3.845
 2777SOL    HW2 8151   3.079   3.212   3.936
 2778SOL     OW 8152   3.355   3.629   4.683
 2778SOL    HW1 8153   3.388   3.693   4.614
 2778SOL    HW2 8154   3.421   3.623   4.758
 2779SOL     OW 8155   3.312   3.082   5.357
 2779SOL    HW1 8156   3.303   3.072   5.456
 2779SOL    HW2 8157   3.408   3.075   5.331
 2780SOL     OW 8158   3.536   2.745   4.978
 2780SOL    HW1 8159   3.509   2.656   4.941
 2780SOL    HW2 8160   3.537   2.813   4.905
 2781SOL     OW 8161   3.087   2.187   4.173
 2781SOL    HW1 8162   3.152   2.113   4.162
 2781SOL    HW2 8163   3.107   2.237   4.257
 2782SOL     OW 8164   2.456   2.607   4.376
 2782SOL    HW1 8165   2.506   2.692   4.357
 2782SOL    HW2 8166   2.368   2.609   4.328
 2783SOL     OW 8167   3.592   2.796   5.241
 2783SOL    HW1 8168   3.630   2.887   5.256
 2783SOL    HW2 8169   3.584   2.779   5.142
 2784SOL     OW 8170   2.721   3.236   3.740
 2784SOL    HW1 8171   2.675   3.251   3.828
 2784SOL    HW2 8172   2.765   3.321   3.710
 2785SOL     OW 8173   2.523   3.652   4.677
 2785SOL    HW1 8174   2.477   3.740   4.664
 2785SOL    HW2 8175   2.622   3.664   4.670
 2786SOL     OW 8176   2.721   2.818   4.585
 2786SOL    HW1 8177   2.775   2.749   4.633
 2786SOL    HW2 8178   2.689   2.887   4.651
 2787SOL     OW 8179   2.945   2.846   3.811
 2787SOL    HW1 8180   2.922   2.899   3.729
 2787SOL    HW2 8181   3.026   2.790   3.792
 2788SOL     OW 8182   3.723   3.431   4.575
 2788SOL    HW1 8183   3.652   3.419   4.505
 2788SOL    HW2 8184   3.724   3.352   4.635
 2789SOL     OW 8185   1.941   3.102   4.377
 2789SOL    HW1 8186   1.940   3.055   4.465
 2789SOL    HW2 8187   2.023   3.074   4.326
 2790SOL     OW 8188   3.686   2.054   4.951
 2790SOL    HW1 8189   3.682   1.964   4.995
 2790SOL    HW2 8190   3.689   2.043   4.852
 2791SOL     OW 8191   2.290   2.286   4.244
 2791SOL    HW1 8192   2.320   2.214   4.182
 2791SOL    HW2 8193   2.251   2.246   4.327
 2792SOL     OW 8194   3.567   3.349   4.828
 2792SOL    HW1 8195   3.474   3.324   4.801
 2792SOL    HW2 8196   3.593   3.299   4.910
 2793SOL     OW 8197   2.674   3.448   4.411
 2793SOL    HW1 8198   2.706   3.458   4.317
 2793SOL    HW2 8199   2.595   3.386   4.413
 2794SOL     OW 8200   3.286   2.076   4.836
 2794SOL    HW1 8201   3.338   2.011   4.891
 2794SOL    HW2 8202   3.237   2.139   4.897
 2795SOL     OW 8203   2.863   1.896   4.878
 2795SOL    HW1 8204   2.800   1.824   4.847
 2795SOL    HW2 8205   2.956   1.860   4.878
 2796SOL     OW 8206   2.632   3.192   4.025
 2796SOL    HW1 8207   2.586   3.105   4.042
 2796SOL    HW2 8208   2.723   3.189   4.066
 2797SOL     OW 8209   3.214   1.914   3.892
 2797SOL    HW1 8210   3.249   1.873   3.808
 2797SOL    HW2 8211   3.124   1.876   3.912
 2798SOL     OW 8212   3.162   2.315   4.415
 2798SOL    HW1 8213   3.103   2.395   4.419
 2798SOL    HW2 8214   3.177   2.280   4.508
 2799SOL     OW 8215   3.455   2.083   4.606
 2799SOL    HW1 8216   3.371   2.082   4.660
 2799SOL    HW2 8217   3.457   2.166   4.550
 2800SOL     OW 8218   1.901   2.939   4.024
 2800SOL    HW1 8219   2.000   2.928   4.015
 2800SOL    HW2 8220   1.861   2.853   4.056
 2801SOL     OW 8221   2.737   3.508   4.061
 2801SOL    HW1 8222   2.660   3.473   4.007
 2801SOL    HW2 8223   2.705   3.579   4.123
 2802SOL     OW 8224   2.092   4.352   0.113
 2802SOL    HW1 8225   1.999   4.350   0.150
 2802SOL    HW2 8226   2.093   4.313   0.021
 2803SOL     OW 8227   2.087   3.999   0.996
 2803SOL    HW1 8228   2.122   3.982   1.088
 2803SOL    HW2 8229   1.999   3.954   0.984
 2804SOL     OW 8230   1.881   4.092   0.647
 2804SOL    HW1 8231   1.799   4.135   0.686
 2804SOL    HW2 8232   1.853   4.019   0.584
 2805SOL     OW 8233   2.431   4.999   1.165
 2805SOL    HW1 8234   2.338   4.992   1.128
 2805SOL    HW2 8235   2.442   5.088   1.209
 2806SOL     OW 8236   3.417   5.235   0.703
 2806SOL    HW1 8237   3.360   5.219   0.784
 2806SOL    HW2 8238   3.358   5.245   0.623
 2807SOL     OW 8239   2.997   4.427   0.717
 2807SOL    HW1 8240   3.054   4.505   0.692
 2807SOL    HW2 8241   2.937   4.453   0.793
 2808SOL     OW 8242   3.617   4.331   0.231
 2808SOL    HW1 8243   3.605   4.318   0.132
 2808SOL    HW2 8244   3.587   4.250   0.280
 2809SOL     OW 8245   2.630   4.868   1.023
 2809SOL    HW1 8246   2.552   4.885   1.083
 2809SOL    HW2 8247   2.664   4.955   0.987
 2810SOL     OW 8248   2.712   4.522   1.823
 2810SOL    HW1 8249   2.708   4.598   1.888
 2810SOL    HW2 8250   2.734   4.558   1.732
 2811SOL     OW 8251   2.547   4.736   0.665
 2811SOL    HW1 8252   2.616   4.720   0.735
 2811SOL    HW2 8253   2.474   4.793   0.703
 2812SOL     OW 8254   2.548   4.885   1.803
 2812SOL    HW1 8255   2.608   4.964   1.817
 2812SOL    HW2 8256   2.462   4.916   1.762
 2813SOL     OW 8257   2.197   5.159   1.061
 2813SOL    HW1 8258   2.119   5.128   1.008
 2813SOL    HW2 8259   2.255   5.217   1.004
 2814SOL     OW 8260   2.300   4.116   1.499
 2814SOL    HW1 8261   2.382   4.060   1.508
 2814SOL    HW2 8262   2.219   4.058   1.503
 2815SOL     OW 8263   3.465   4.171   0.737
 2815SOL    HW1 8264   3.391   4.217   0.687
 2815SOL    HW2 8265   3.516   4.239   0.790
 2816SOL     OW 8266   2.102   4.815   0.886
 2816SOL    HW1 8267   2.116   4.731   0.938
 2816SOL    HW2 8268   2.047   4.879   0.941
 2817SOL     OW 8269   2.468   4.688   0.123
 2817SOL    HW1 8270   2.475   4.772   0.069
 2817SOL    HW2 8271   2.514   4.701   0.211
 2818SOL     OW 8272   3.456   3.838   1.480
 2818SOL    HW1 8273   3.438   3.905   1.408
 2818SOL    HW2 8274   3.453   3.884   1.569
 2819SOL     OW 8275   1.984   4.367   0.563
 2819SOL    HW1 8276   1.939   4.279   0.580
 2819SOL    HW2 8277   1.983   4.421   0.647
 2820SOL     OW 8278   3.551   4.646   0.612
 2820SOL    HW1 8279   3.646   4.617   0.620
 2820SOL    HW2 8280   3.543   4.711   0.537
 2821SOL     OW 8281   3.503   4.832   0.432
 2821SOL    HW1 8282   3.589   4.834   0.380
 2821SOL    HW2 8283   3.517   4.879   0.520
 2822SOL     OW 8284   1.975   4.461   1.597
 2822SOL    HW1 8285   2.063   4.448   1.642
 2822SOL    HW2 8286   1.962   4.558   1.575
 2823SOL     OW 8287   3.155   4.952   1.423
 2823SOL    HW1 8288   3.192   4.879   1.365
 2823SOL    HW2 8289   3.207   4.957   1.508
 2824SOL     OW 8290   2.671   3.728   0.502
 2824SOL    HW1 8291   2.711   3.819   0.493
 2824SOL    HW2 8292   2.571   3.736   0.508
 2825SOL     OW 8293   2.059   4.700   1.264
 2825SOL    HW1 8294   2.148   4.655   1.250
 2825SOL    HW2 8295   1.986   4.635   1.245
 2826SOL     OW 8296   3.387   4.723   0.190
 2826SOL    HW1 8297   3.324   4.647   0.203
 2826SOL    HW2 8298   3.435   4.741   0.276
 2827SOL     OW 8299   2.179   3.975   1.801
 2827SOL    HW1 8300   2.250   4.046   1.807
 2827SOL    HW2 8301   2.091   4.014   1.829
 2828SOL     OW 8302   3.328   5.141   0.953
 2828SOL    HW1 8303   3.269   5.147   1.033
 2828SOL    HW2 8304   3.313   5.053   0.907
 2829SOL     OW 8305   2.460   4.453   0.270
 2829SOL    HW1 8306   2.484   4.522   0.202
 2829SOL    HW2 8307   2.382   4.486   0.324
 2830SOL     OW 8308   3.143   4.069   0.944
 2830SOL    HW1 8309   3.057   4.019   0.931
 2830SOL    HW2 8310   3.205   4.015   1.000
 2831SOL     OW 8311   2.669   4.329   1.465
 2831SOL    HW1 8312   2.622   4.326   1.554
 2831SOL    HW2 8313   2.618   4.274   1.399
 2832SOL     OW 8314   3.256   4.193   1.674
 2832SOL    HW1 8315   3.236   4.236   1.762
 2832SOL    HW2 8316   3.334   4.131   1.683
 2833SOL     OW 8317   2.835   4.614   1.572
 2833SOL    HW1 8318   2.881   4.530   1.543
 2833SOL    HW2 8319   2.779   4.648   1.497
 2834SOL     OW 8320   2.853   4.134   1.242
 2834SOL    HW1 8321   2.776   4.168   1.296
 2834SOL    HW2 8322   2.819   4.083   1.163
 2835SOL     OW 8323   2.903   4.425   0.429
 2835SOL    HW1 8324   2.929   4.421   0.525
 2835SOL    HW2 8325   2.818   4.374   0.415
 2836SOL     OW 8326   1.938   4.535   0.789
 2836SOL    HW1 8327   2.037   4.523   0.798
 2836SOL    HW2 8328   1.914   4.630   0.810
 2837SOL     OW 8329   2.727   4.072   0.195
 2837SOL    HW1 8330   2.786   4.135   0.146
 2837SOL    HW2 8331   2.746   3.978   0.166
 2838SOL     OW 8332   3.581   4.309   1.831
 2838SOL    HW1 8333   3.555   4.398   1.795
 2838SOL    HW2 8334   3.579   4.241   1.758
 2839SOL     OW 8335   3.224   4.868   0.545
 2839SOL    HW1 8336   3.307   4.839   0.497
 2839SOL    HW2 8337   3.175   4.935   0.489
 2840SOL     OW 8338   2.412   3.920   0.885
 2840SOL    HW1 8339   2.407   3.915   0.985
 2840SOL    HW2 8340   2.414   4.016   0.856
 2841SOL     OW 8341   3.657   4.790   0.873
 2841SOL    HW1 8342   3.595   4.775   0.797
 2841SOL    HW2 8343   3.605   4.801   0.958
 2842SOL     OW 8344   2.183   4.667   0.242
 2842SOL    HW1 8345   2.265   4.706   0.200
 2842SOL    HW2 8346   2.156   4.585   0.193
 2843SOL     OW 8347   3.320   4.459   0.728
 2843SOL    HW1 8348   3.315   4.394   0.803
 2843SOL    HW2 8349   3.400   4.518   0.741
 2844SOL     OW 8350   2.064   4.009   1.498
 2844SOL    HW1 8351   1.984   4.069   1.485
 2844SOL    HW2 8352   2.054   3.960   1.584
 2845SOL     OW 8353   3.494   5.101   0.081
 2845SOL    HW1 8354   3.462   5.195   0.071
 2845SOL    HW2 8355   3.418   5.038   0.069
 2846SOL     OW 8356   3.262   3.831   0.426
 2846SOL    HW1 8357   3.238   3.794   0.336
 2846SOL    HW2 8358   3.361   3.847   0.430
 2847SOL     OW 8359   2.244   4.424   0.480
 2847SOL    HW1 8360   2.289   4.334   0.477
 2847SOL    HW2 8361   2.150   4.413   0.513
 2848SOL     OW 8362   3.409   3.946   1.729
 2848SOL    HW1 8363   3.404   3.983   1.821
 2848SOL    HW2 8364   3.337   3.877   1.717
 2849SOL     OW 8365   2.643   3.988   1.749
 2849SOL    HW1 8366   2.710   3.927   1.792
 2849SOL    HW2 8367   2.570   4.007   1.814
 2850SOL     OW 8368   3.213   4.314   1.433
 2850SOL    HW1 8369   3.241   4.271   1.518
 2850SOL    HW2 8370   3.238   4.410   1.434
 2851SOL     OW 8371   2.665   5.126   0.924
 2851SOL    HW1 8372   2.755   5.140   0.882
 2851SOL    HW2 8373   2.594   5.128   0.853
 2852SOL     OW 8374   2.784   4.227   0.899
 2852SOL    HW1 8375   2.759   4.218   0.803
 2852SOL    HW2 8376   2.832   4.145   0.930
 2853SOL     OW 8377   2.401   3.788   0.512
 2853SOL    HW1 8378   2.320   3.789   0.570
 2853SOL    HW2 8379   2.404   3.871   0.457
 2854SOL     OW 8380   3.296   4.912   0.041
 2854SOL    HW1 8381   3.328   4.836   0.098
 2854SOL    HW2 8382   3.204   4.939   0.071
 2855SOL     OW 8383   2.159   3.759   0.171
 2855SOL    HW1 8384   2.208   3.843   0.150
 2855SOL    HW2 8385   2.221   3.694   0.216
 2856SOL     OW 8386   2.797   3.960   0.480
 2856SOL    HW1 8387   2.749   4.001   0.402
 2856SOL    HW2 8388   2.896   3.958   0.461
 2857SOL     OW 8389   2.938   4.407   1.464
 2857SOL    HW1 8390   2.858   4.346   1.467
 2857SOL    HW2 8391   3.019   4.354   1.440
 2858SOL     OW 8392   3.089   5.294   0.793
 2858SOL    HW1 8393   3.110   5.368   0.728
 2858SOL    HW2 8394   3.157   5.294   0.866
 2859SOL     OW 8395   2.321   4.876   0.741
 2859SOL    HW1 8396   2.250   4.849   0.806
 2859SOL    HW2 8397   2.295   4.848   0.648
 2860SOL     OW 8398   2.894   4.273   0.016
 2860SOL    HW1 8399   2.853   4.355  -0.023
 2860SOL    HW2 8400   2.958   4.299   0.089
 2861SOL     OW 8401   1.940   4.280   1.386
 2861SOL    HW1 8402   2.032   4.279   1.345
 2861SOL    HW2 8403   1.934   4.354   1.453
 2862SOL     OW 8404   2.423   3.946   1.147
 2862SOL    HW1 8405   2.461   3.862   1.184
 2862SOL    HW2 8406   2.335   3.965   1.191
 2863SOL     OW 8407   2.728   4.178   0.642
 2863SOL    HW1 8408   2.696   4.250   0.580
 2863SOL    HW2 8409   2.752   4.097   0.589
 2864SOL     OW 8410   2.879   3.763   0.753
 2864SOL    HW1 8411   2.807   3.768   0.684
 2864SOL    HW2 8412   2.855   3.694   0.822
 2865SOL     OW 8413   3.291   4.897   0.867
 2865SOL    HW1 8414   3.236   4.813   0.860
 2865SOL    HW2 8415   3.317   4.926   0.775
 2866SOL     OW 8416   3.328   4.314   0.992
 2866SOL    HW1 8417   3.298   4.219   0.999
 2866SOL    HW2 8418   3.401   4.330   1.058
 2867SOL     OW 8419   3.719   4.557   0.377
 2867SOL    HW1 8420   3.761   4.493   0.441
 2867SOL    HW2 8421   3.681   4.506   0.299
 2868SOL     OW 8422   3.526   5.004   0.657
 2868SOL    HW1 8423   3.625   5.012   0.671
 2868SOL    HW2 8424   3.481   5.088   0.688
 2869SOL     OW 8425   3.252   4.299   0.078
 2869SOL    HW1 8426   3.198   4.278   0.159
 2869SOL    HW2 8427   3.343   4.258   0.087
 2870SOL     OW 8428   2.389   3.980   0.328
 2870SOL    HW1 8429   2.416   3.921   0.253
 2870SOL    HW2 8430   2.389   4.075   0.297
 2871SOL     OW 8431   3.616   4.947   1.588
 2871SOL    HW1 8432   3.707   4.908   1.575
 2871SOL    HW2 8433   3.624   5.043   1.612
 2872SOL     OW 8434   3.500   4.823   1.079
 2872SOL    HW1 8435   3.505   4.904   1.138
 2872SOL    HW2 8436   3.414   4.825   1.028
 2873SOL     OW 8437   2.777   3.813   1.402
 2873SOL    HW1 8438   2.802   3.793   1.307
 2873SOL    HW2 8439   2.849   3.869   1.444
 2874SOL     OW 8440   2.842   4.840   1.719
 2874SOL    HW1 8441   2.743   4.846   1.729
 2874SOL    HW2 8442   2.865   4.760   1.663
 2875SOL     OW 8443   2.567   4.774   0.368
 2875SOL    HW1 8444   2.553   4.781   0.467
 2875SOL    HW2 8445   2.651   4.723   0.350
 2876SOL     OW 8446   2.272   4.537   1.251
 2876SOL    HW1 8447   2.358   4.549   1.301
 2876SOL    HW2 8448   2.230   4.450   1.278
 2877SOL     OW 8449   3.136   4.110   1.262
 2877SOL    HW1 8450   3.157   4.184   1.326
 2877SOL    HW2 8451   3.047   4.127   1.219
 2878SOL     OW 8452   2.229   4.824   0.501
 2878SOL    HW1 8453   2.222   4.907   0.445
 2878SOL    HW2 8454   2.233   4.744   0.441
 2879SOL     OW 8455   2.428   4.261   0.865
 2879SOL    HW1 8456   2.440   4.327   0.791
 2879SOL    HW2 8457   2.474   4.295   0.948
 2880SOL     OW 8458   3.444   4.363   0.472
 2880SOL    HW1 8459   3.413   4.424   0.545
 2880SOL    HW2 8460   3.494   4.415   0.403
 2881SOL     OW 8461   2.264   4.475   1.598
 2881SOL    HW1 8462   2.332   4.530   1.551
 2881SOL    HW2 8463   2.304   4.387   1.625
 2882SOL     OW 8464   3.449   4.503   1.670
 2882SOL    HW1 8465   3.357   4.541   1.665
 2882SOL    HW2 8466   3.509   4.550   1.605
 2883SOL     OW 8467   2.875   3.829   1.770
 2883SOL    HW1 8468   2.881   3.914   1.718
 2883SOL    HW2 8469   2.907   3.753   1.713
 2884SOL     OW 8470   2.366   3.774   1.740
 2884SOL    HW1 8471   2.324   3.717   1.670
 2884SOL    HW2 8472   2.300   3.843   1.772
 2885SOL     OW 8473   2.435   4.594   1.029
 2885SOL    HW1 8474   2.479   4.683   1.020
 2885SOL    HW2 8475   2.372   4.594   1.106
 2886SOL     OW 8476   3.222   4.586   1.045
 2886SOL    HW1 8477   3.147   4.586   0.979
 2886SOL    HW2 8478   3.259   4.494   1.054
 2887SOL     OW 8479   3.071   4.249   0.275
 2887SOL    HW1 8480   3.084   4.165   0.329
 2887SOL    HW2 8481   3.042   4.323   0.335
 2888SOL     OW 8482   2.169   3.937   1.231
 2888SOL    HW1 8483   2.146   3.974   1.321
 2888SOL    HW2 8484   2.139   3.842   1.225
 2889SOL     OW 8485   2.594   4.358   1.064
 2889SOL    HW1 8486   2.653   4.332   0.988
 2889SOL    HW2 8487   2.566   4.454   1.053
 2890SOL     OW 8488   3.590   4.659   1.854
 2890SOL    HW1 8489   3.544   4.652   1.765
 2890SOL    HW2 8490   3.528   4.703   1.920
 2891SOL     OW 8491   2.169   3.787   0.618
 2891SOL    HW1 8492   2.158   3.881   0.651
 2891SOL    HW2 8493   2.164   3.724   0.695
 2892SOL     OW 8494   3.484   4.091   0.374
 2892SOL    HW1 8495   3.486   4.015   0.438
 2892SOL    HW2 8496   3.436   4.168   0.414
 2893SOL     OW 8497   2.885   4.490   0.966
 2893SOL    HW1 8498   2.900   4.511   1.062
 2893SOL    HW2 8499   2.855   4.395   0.957
 2894SOL     OW 8500   3.721   5.242   1.605
 2894SOL    HW1 8501   3.735   5.269   1.510
 2894SOL    HW2 8502   3.804   5.264   1.658
 2895SOL     OW 8503   2.212   4.622   1.804
 2895SOL    HW1 8504   2.288   4.666   1.852
 2895SOL    HW2 8505   2.247   4.575   1.722
 2896SOL     OW 8506   3.402   3.998   0.125
 2896SOL    HW1 8507   3.341   3.923   0.148
 2896SOL    HW2 8508   3.424   4.050   0.208
 2897SOL     OW 8509   3.165   4.562   0.042
 2897SOL    HW1 8510   3.199   4.469   0.057
 2897SOL    HW2 8511   3.183   4.589  -0.053
 2898SOL     OW 8512   2.181   4.534   0.949
 2898SOL    HW1 8513   2.274   4.570   0.954
 2898SOL    HW2 8514   2.175   4.449   1.001
 2899SOL     OW 8515   2.201   4.233   1.006
 2899SOL    HW1 8516   2.149   4.150   0.989
 2899SOL    HW2 8517   2.278   4.238   0.942
 2900SOL     OW 8518   3.000   4.104   1.678
 2900SOL    HW1 8519   2.955   4.167   1.742
 2900SOL    HW2 8520   3.093   4.135   1.661
 2901SOL     OW 8521   3.022   3.931   1.477
 2901SOL    HW1 8522   3.022   3.995   1.554
 2901SOL    HW2 8523   3.050   3.979   1.394
 2902SOL     OW 8524   2.864   4.520   1.238
 2902SOL    HW1 8525   2.905   4.488   1.324
 2902SOL    HW2 8526   2.768   4.493   1.235
 2903SOL     OW 8527   1.902   4.268   1.114
 2903SOL    HW1 8528   1.987   4.235   1.073
 2903SOL    HW2 8529   1.915   4.283   1.212
 2904SOL     OW 8530   2.051   4.244   1.722
 2904SOL    HW1 8531   2.110   4.204   1.652
 2904SOL    HW2 8532   1.993   4.315   1.681
 2905SOL     OW 8533   3.231   4.674   1.660
 2905SOL    HW1 8534   3.270   4.763   1.680
 2905SOL    HW2 8535   3.241   4.654   1.563
 2906SOL     OW 8536   2.677   4.296   0.325
 2906SOL    HW1 8537   2.684   4.207   0.279
 2906SOL    HW2 8538   2.583   4.330   0.317
 2907SOL     OW 8539   3.519   4.328   1.206
 2907SOL    HW1 8540   3.481   4.259   1.268
 2907SOL    HW2 8541   3.601   4.292   1.162
 2908SOL     OW 8542   2.533   4.188   1.269
 2908SOL    HW1 8543   2.499   4.099   1.239
 2908SOL    HW2 8544   2.559   4.242   1.189
 2909SOL     OW 8545   2.335   4.224   0.191
 2909SOL    HW1 8546   2.396   4.304   0.195
 2909SOL    HW2 8547   2.240   4.255   0.198
 2910SOL     OW 8548   2.021   4.861   1.466
 2910SOL    HW1 8549   2.043   4.800   1.542
 2910SOL    HW2 8550   2.031   4.812   1.380
 2911SOL     OW 8551   3.209   4.783   1.234
 2911SOL    HW1 8552   3.233   4.720   1.160
 2911SOL    HW2 8553   3.119   4.823   1.216
 2912SOL     OW 8554   3.164   4.579   0.309
 2912SOL    HW1 8555   3.078   4.548   0.351
 2912SOL    HW2 8556   3.160   4.565   0.210
 2913SOL     OW 8557   1.945   4.982   1.022
 2913SOL    HW1 8558   1.940   4.981   1.122
 2913SOL    HW2 8559   1.862   4.941   0.984
 2914SOL     OW 8560   2.765   3.810   0.133
 2914SOL    HW1 8561   2.816   3.811   0.047
 2914SOL    HW2 8562   2.821   3.768   0.204
 2915SOL     OW 8563   3.588   3.859   0.523
 2915SOL    HW1 8564   3.661   3.842   0.456
 2915SOL    HW2 8565   3.557   3.772   0.561
 2916SOL     OW 8566   3.142   4.651   0.672
 2916SOL    HW1 8567   3.202   4.570   0.674
 2916SOL    HW2 8568   3.182   4.720   0.612
 2917SOL     OW 8569   2.692   4.997   1.422
 2917SOL    HW1 8570   2.687   5.030   1.517
 2917SOL    HW2 8571   2.606   5.016   1.376
 2918SOL     OW 8572   3.703   3.899   0.963
 2918SOL    HW1 8573   3.742   3.814   0.927
 2918SOL    HW2 8574   3.605   3.901   0.944
 2919SOL     OW 8575   2.125   4.050   0.720
 2919SOL    HW1 8576   2.046   4.101   0.686
 2919SOL    HW2 8577   2.116   4.035   0.818
 2920SOL     OW 8578   2.684   4.726   1.372
 2920SOL    HW1 8579   2.724   4.725   1.280
 2920SOL    HW2 8580   2.694   4.818   1.412
 2921SOL     OW 8581   2.778   4.634   0.291
 2921SOL    HW1 8582   2.841   4.672   0.223
 2921SOL    HW2 8583   2.818   4.551   0.330
 2922SOL     OW 8584   2.234   5.012   1.490
 2922SOL    HW1 8585   2.221   5.105   1.456
 2922SOL    HW2 8586   2.150   4.960   1.477
 2923SOL     OW 8587   3.476   5.016   1.289
 2923SOL    HW1 8588   3.536   5.019   1.369
 2923SOL    HW2 8589   3.401   5.080   1.302
 2924SOL     OW 8590   2.901   4.822   0.696
 2924SOL    HW1 8591   2.831   4.775   0.750
 2924SOL    HW2 8592   2.960   4.754   0.653
 2925SOL     OW 8593   2.876   3.960   0.971
 2925SOL    HW1 8594   2.868   3.924   0.878
 2925SOL    HW2 8595   2.874   3.884   1.036
 2926SOL     OW 8596   3.571   4.109   1.381
 2926SOL    HW1 8597   3.644   4.178   1.385
 2926SOL    HW2 8598   3.599   4.034   1.322
 2927SOL     OW 8599   1.967   4.737   1.726
 2927SOL    HW1 8600   1.890   4.704   1.780
 2927SOL    HW2 8601   2.052   4.707   1.768
 2928SOL     OW 8602   2.534   3.927   1.489
 2928SOL    HW1 8603   2.624   3.911   1.449
 2928SOL    HW2 8604   2.542   3.932   1.588
 2929SOL     OW 8605   3.302   4.580   1.398
 2929SOL    HW1 8606   3.245   4.632   1.335
 2929SOL    HW2 8607   3.398   4.592   1.374
 2930SOL     OW 8608   1.934   3.890   0.318
 2930SOL    HW1 8609   1.917   3.973   0.264
 2930SOL    HW2 8610   2.024   3.853   0.296
 2931SOL     OW 8611   2.475   4.566   1.431
 2931SOL    HW1 8612   2.531   4.647   1.414
 2931SOL    HW2 8613   2.534   4.486   1.434
 2932SOL     OW 8614   2.578   4.289   1.708
 2932SOL    HW1 8615   2.597   4.354   1.782
 2932SOL    HW2 8616   2.638   4.209   1.717
 2933SOL     OW 8617   3.312   4.944   1.633
 2933SOL    HW1 8618   3.303   4.934   1.732
 2933SOL    HW2 8619   3.408   4.937   1.607
 2934SOL     OW 8620   3.536   4.607   1.254
 2934SOL    HW1 8621   3.509   4.518   1.217
 2934SOL    HW2 8622   3.537   4.675   1.181
 2935SOL     OW 8623   3.087   4.049   0.449
 2935SOL    HW1 8624   3.152   3.975   0.438
 2935SOL    HW2 8625   3.107   4.099   0.533
 2936SOL     OW 8626   2.456   4.469   0.652
 2936SOL    HW1 8627   2.506   4.554   0.633
 2936SOL    HW2 8628   2.368   4.471   0.604
 2937SOL     OW 8629   3.639   4.066   1.642
 2937SOL    HW1 8630   3.622   4.097   1.548
 2937SOL    HW2 8631   3.555   4.029   1.680
 2938SOL     OW 8632   3.592   4.658   1.517
 2938SOL    HW1 8633   3.630   4.749   1.532
 2938SOL    HW2 8634   3.584   4.641   1.418
 2939SOL     OW 8635   2.721   4.680   0.861
 2939SOL    HW1 8636   2.775   4.611   0.909
 2939SOL    HW2 8637   2.689   4.749   0.927
 2940SOL     OW 8638   2.945   4.708   0.087
 2940SOL    HW1 8639   2.922   4.761   0.005
 2940SOL    HW2 8640   3.026   4.652   0.068
 2941SOL     OW 8641   1.941   4.964   0.653
 2941SOL    HW1 8642   1.940   4.917   0.741
 2941SOL    HW2 8643   2.023   4.936   0.602
 2942SOL     OW 8644   3.686   3.916   1.227
 2942SOL    HW1 8645   3.682   3.826   1.271
 2942SOL    HW2 8646   3.689   3.905   1.128
 2943SOL     OW 8647   2.290   4.148   0.520
 2943SOL    HW1 8648   2.320   4.076   0.458
 2943SOL    HW2 8649   2.251   4.108   0.603
 2944SOL     OW 8650   2.179   4.271   1.280
 2944SOL    HW1 8651   2.217   4.212   1.352
 2944SOL    HW2 8652   2.219   4.245   1.192
 2945SOL     OW 8653   3.286   3.938   1.112
 2945SOL    HW1 8654   3.338   3.873   1.167
 2945SOL    HW2 8655   3.237   4.001   1.173
 2946SOL     OW 8656   2.863   3.758   1.154
 2946SOL    HW1 8657   2.800   3.686   1.123
 2946SOL    HW2 8658   2.956   3.722   1.154
 2947SOL     OW 8659   2.632   5.054   0.301
 2947SOL    HW1 8660   2.586   4.967   0.318
 2947SOL    HW2 8661   2.723   5.051   0.342
 2948SOL     OW 8662   3.214   3.776   0.168
 2948SOL    HW1 8663   3.249   3.735   0.084
 2948SOL    HW2 8664   3.124   3.738   0.188
 2949SOL     OW 8665   3.162   4.177   0.691
 2949SOL    HW1 8666   3.103   4.257   0.695
 2949SOL    HW2 8667   3.177   4.142   0.784
 2950SOL     OW 8668   3.455   3.945   0.882
 2950SOL    HW1 8669   3.371   3.944   0.936
 2950SOL    HW2 8670   3.457   4.028   0.826
 2951SOL     OW 8671   1.901   4.801   0.300
 2951SOL    HW1 8672   2.000   4.790   0.291
 2951SOL    HW2 8673   1.861   4.715   0.332
 2952SOL     OW 8674   2.092   4.352   1.975
 2952SOL    HW1 8675   1.999   4.350   2.012
 2952SOL    HW2 8676   2.093   4.313   1.883
 2953SOL     OW 8677   2.087   3.999   2.858
 2953SOL    HW1 8678   2.122   3.982   2.950
 2953SOL    HW2 8679   1.999   3.954   2.846
 2954SOL     OW 8680   1.881   4.092   2.509
 2954SOL    HW1 8681   1.799   4.135   2.548
 2954SOL    HW2 8682   1.853   4.019   2.446
 2955SOL     OW 8683   2.431   4.999   3.027
 2955SOL    HW1 8684   2.338   4.992   2.990
 2955SOL    HW2 8685   2.442   5.088   3.071
 2956SOL     OW 8686   3.417   5.235   2.565
 2956SOL    HW1 8687   3.360   5.219   2.646
 2956SOL    HW2 8688   3.358   5.245   2.485
 2957SOL     OW 8689   2.997   4.427   2.579
 2957SOL    HW1 8690   3.054   4.505   2.554
 2957SOL    HW2 8691   2.937   4.453   2.655
 2958SOL     OW 8692   3.617   4.331   2.093
 2958SOL    HW1 8693   3.605   4.318   1.994
 2958SOL    HW2 8694   3.587   4.250   2.142
 2959SOL     OW 8695   2.630   4.868   2.885
 2959SOL    HW1 8696   2.552   4.885   2.945
 2959SOL    HW2 8697   2.664   4.955   2.849
 2960SOL     OW 8698   2.712   4.522   3.685
 2960SOL    HW1 8699   2.708   4.598   3.750
 2960SOL    HW2 8700   2.734   4.558   3.594
 2961SOL     OW 8701   2.547   4.736   2.527
 2961SOL    HW1 8702   2.616   4.720   2.597
 2961SOL    HW2 8703   2.474   4.793   2.565
 2962SOL     OW 8704   2.548   4.885   3.665
 2962SOL    HW1 8705   2.608   4.964   3.679
 2962SOL    HW2 8706   2.462   4.916   3.624
 2963SOL     OW 8707   2.197   5.159   2.923
 2963SOL    HW1 8708   2.119   5.128   2.870
 2963SOL    HW2 8709   2.255   5.217   2.866
 2964SOL     OW 8710   2.300   4.116   3.361
 2964SOL    HW1 8711   2.382   4.060   3.370
 2964SOL    HW2 8712   2.219   4.058   3.365
 2965SOL     OW 8713   3.465   4.171   2.599
 2965SOL    HW1 8714   3.391   4.217   2.549
 2965SOL    HW2 8715   3.516   4.239   2.652
 2966SOL     OW 8716   2.102   4.815   2.748
 2966SOL    HW1 8717   2.116   4.731   2.800
 2966SOL    HW2 8718   2.047   4.879   2.803
 2967SOL     OW 8719   2.468   4.688   1.985
 2967SOL    HW1 8720   2.475   4.772   1.931
 2967SOL    HW2 8721   2.514   4.701   2.073
 2968SOL     OW 8722   3.456   3.838   3.342
 2968SOL    HW1 8723   3.438   3.905   3.270
 2968SOL    HW2 8724   3.453   3.884   3.431
 2969SOL     OW 8725   1.984   4.367   2.425
 2969SOL    HW1 8726   1.939   4.279   2.442
 2969SOL    HW2 8727   1.983   4.421   2.509
 2970SOL     OW 8728   3.551   4.646   2.474
 2970SOL    HW1 8729   3.646   4.617   2.482
 2970SOL    HW2 8730   3.543   4.711   2.399
 2971SOL     OW 8731   3.503   4.832   2.294
 2971SOL    HW1 8732   3.589   4.834   2.242
 2971SOL    HW2 8733   3.517   4.879   2.382
 2972SOL     OW 8734   1.975   4.461   3.459
 2972SOL    HW1 8735   2.063   4.448   3.504
 2972SOL    HW2 8736   1.962   4.558   3.437
 2973SOL     OW 8737   3.155   4.952   3.285
 2973SOL    HW1 8738   3.192   4.879   3.227
 2973SOL    HW2 8739   3.207   4.957   3.370
 2974SOL     OW 8740   2.671   3.728   2.364
 2974SOL    HW1 8741   2.711   3.819   2.355
 2974SOL    HW2 8742   2.571   3.736   2.370
 2975SOL     OW 8743   2.059   4.700   3.126
 2975SOL    HW1 8744   2.148   4.655   3.112
 2975SOL    HW2 8745   1.986   4.635   3.107
 2976SOL     OW 8746   3.387   4.723   2.052
 2976SOL    HW1 8747   3.324   4.647   2.065
 2976SOL    HW2 8748   3.435   4.741   2.138
 2977SOL     OW 8749   2.179   3.975   3.663
 2977SOL    HW1 8750   2.250   4.046   3.669
 2977SOL    HW2 8751   2.091   4.014   3.691
 2978SOL     OW 8752   3.328   5.141   2.815
 2978SOL    HW1 8753   3.269   5.147   2.895
 2978SOL    HW2 8754   3.313   5.053   2.769
 2979SOL     OW 8755   2.460   4.453   2.132
 2979SOL    HW1 8756   2.484   4.522   2.064
 2979SOL    HW2 8757   2.382   4.486   2.186
 2980SOL     OW 8758   3.143   4.069   2.806
 2980SOL    HW1 8759   3.057   4.019   2.793
 2980SOL    HW2 8760   3.205   4.015   2.862
 2981SOL     OW 8761   2.669   4.329   3.327
 2981SOL    HW1 8762   2.622   4.326   3.416
 2981SOL    HW2 8763   2.618   4.274   3.261
 2982SOL     OW 8764   3.256   4.193   3.536
 2982SOL    HW1 8765   3.236   4.236   3.624
 2982SOL    HW2 8766   3.334   4.131   3.545
 2983SOL     OW 8767   2.835   4.614   3.434
 2983SOL    HW1 8768   2.881   4.530   3.405
 2983SOL    HW2 8769   2.779   4.648   3.359
 2984SOL     OW 8770   2.853   4.134   3.104
 2984SOL    HW1 8771   2.776   4.168   3.158
 2984SOL    HW2 8772   2.819   4.083   3.025
 2985SOL     OW 8773   2.903   4.425   2.291
 2985SOL    HW1 8774   2.929   4.421   2.387
 2985SOL    HW2 8775   2.818   4.374   2.277
 2986SOL     OW 8776   1.938   4.535   2.651
 2986SOL    HW1 8777   2.037   4.523   2.660
 2986SOL    HW2 8778   1.914   4.630   2.672
 2987SOL     OW 8779   2.727   4.072   2.057
 2987SOL    HW1 8780   2.786   4.135   2.008
 2987SOL    HW2 8781   2.746   3.978   2.028
 2988SOL     OW 8782   3.581   4.309   3.693
 2988SOL    HW1 8783   3.555   4.398   3.657
 2988SOL    HW2 8784   3.579   4.241   3.620
 2989SOL     OW 8785   3.224   4.868   2.407
 2989SOL    HW1 8786   3.307   4.839   2.359
 2989SOL    HW2 8787   3.175   4.935   2.351
 2990SOL     OW 8788   2.412   3.920   2.747
 2990SOL    HW1 8789   2.407   3.915   2.847
 2990SOL    HW2 8790   2.414   4.016   2.718
 2991SOL     OW 8791   3.657   4.790   2.735
 2991SOL    HW1 8792   3.595   4.775   2.659
 2991SOL    HW2 8793   3.605   4.801   2.820
 2992SOL     OW 8794   2.183   4.667   2.104
 2992SOL    HW1 8795   2.265   4.706   2.062
 2992SOL    HW2 8796   2.156   4.585   2.055
 2993SOL     OW 8797   3.320   4.459   2.590
 2993SOL    HW1 8798   3.315   4.394   2.665
 2993SOL    HW2 8799   3.400   4.518   2.603
 2994SOL     OW 8800   2.064   4.009   3.360
 2994SOL    HW1 8801   1.984   4.069   3.347
 2994SOL    HW2 8802   2.054   3.960   3.446
 2995SOL     OW 8803   3.494   5.101   1.943
 2995SOL    HW1 8804   3.462   5.195   1.933
 2995SOL    HW2 8805   3.418   5.038   1.931
 2996SOL     OW 8806   3.262   3.831   2.288
 2996SOL    HW1 8807   3.238   3.794   2.198
 2996SOL    HW2 8808   3.361   3.847   2.292
 2997SOL     OW 8809   2.244   4.424   2.342
 2997SOL    HW1 8810   2.289   4.334   2.339
 2997SOL    HW2 8811   2.150   4.413   2.375
 2998SOL     OW 8812   3.409   3.946   3.591
 2998SOL    HW1 8813   3.404   3.983   3.683
 2998SOL    HW2 8814   3.337   3.877   3.579
 2999SOL     OW 8815   2.476   3.846   1.979
 2999SOL    HW1 8816   2.574   3.824   1.986
 2999SOL    HW2 8817   2.445   3.829   1.886
 3000SOL     OW 8818   2.643   3.988   3.611
 3000SOL    HW1 8819   2.710   3.927   3.654
 3000SOL    HW2 8820   2.570   4.007   3.676
 3001SOL     OW 8821   3.213   4.314   3.295
 3001SOL    HW1 8822   3.241   4.271   3.380
 3001SOL    HW2 8823   3.238   4.410   3.296
 3002SOL     OW 8824   2.665   5.126   2.786
 3002SOL    HW1 8825   2.755   5.140   2.744
 3002SOL    HW2 8826   2.594   5.128   2.715
 3003SOL     OW 8827   2.784   4.227   2.761
 3003SOL    HW1 8828   2.759   4.218   2.665
 3003SOL    HW2 8829   2.832   4.145   2.792
 3004SOL     OW 8830   2.401   3.788   2.374
 3004SOL    HW1 8831   2.320   3.789   2.432
 3004SOL    HW2 8832   2.404   3.871   2.319
 3005SOL     OW 8833   3.296   4.912   1.903
 3005SOL    HW1 8834   3.328   4.836   1.960
 3005SOL    HW2 8835   3.204   4.939   1.933
 3006SOL     OW 8836   2.159   3.759   2.033
 3006SOL    HW1 8837   2.208   3.843   2.012
 3006SOL    HW2 8838   2.221   3.694   2.078
 3007SOL     OW 8839   2.797   3.960   2.342
 3007SOL    HW1 8840   2.749   4.001   2.264
 3007SOL    HW2 8841   2.896   3.958   2.323
 3008SOL     OW 8842   2.938   4.407   3.326
 3008SOL    HW1 8843   2.858   4.346   3.329
 3008SOL    HW2 8844   3.019   4.354   3.302
 3009SOL     OW 8845   3.089   5.294   2.655
 3009SOL    HW1 8846   3.110   5.368   2.590
 3009SOL    HW2 8847   3.157   5.294   2.728
 3010SOL     OW 8848   2.321   4.876   2.603
 3010SOL    HW1 8849   2.250   4.849   2.668
 3010SOL    HW2 8850   2.295   4.848   2.510
 3011SOL     OW 8851   2.894   4.273   1.878
 3011SOL    HW1 8852   2.853   4.355   1.839
 3011SOL    HW2 8853   2.958   4.299   1.951
 3012SOL     OW 8854   1.940   4.280   3.248
 3012SOL    HW1 8855   2.032   4.279   3.207
 3012SOL    HW2 8856   1.934   4.354   3.315
 3013SOL     OW 8857   2.423   3.946   3.009
 3013SOL    HW1 8858   2.461   3.862   3.046
 3013SOL    HW2 8859   2.335   3.965   3.053
 3014SOL     OW 8860   2.728   4.178   2.504
 3014SOL    HW1 8861   2.696   4.250   2.442
 3014SOL    HW2 8862   2.752   4.097   2.451
 3015SOL     OW 8863   2.879   3.763   2.615
 3015SOL    HW1 8864   2.807   3.768   2.546
 3015SOL    HW2 8865   2.855   3.694   2.684
 3016SOL     OW 8866   3.291   4.897   2.729
 3016SOL    HW1 8867   3.236   4.813   2.722
 3016SOL    HW2 8868   3.317   4.926   2.637
 3017SOL     OW 8869   3.328   4.314   2.854
 3017SOL    HW1 8870   3.298   4.219   2.861
 3017SOL    HW2 8871   3.401   4.330   2.920
 3018SOL     OW 8872   3.719   4.557   2.239
 3018SOL    HW1 8873   3.761   4.493   2.303
 3018SOL    HW2 8874   3.681   4.506   2.161
 3019SOL     OW 8875   3.526   5.004   2.519
 3019SOL    HW1 8876   3.625   5.012   2.533
 3019SOL    HW2 8877   3.481   5.088   2.550
 3020SOL     OW 8878   3.252   4.299   1.940
 3020SOL    HW1 8879   3.198   4.278   2.021
 3020SOL    HW2 8880   3.343   4.258   1.949
 3021SOL     OW 8881   2.389   3.980   2.190
 3021SOL    HW1 8882   2.416   3.921   2.115
 3021SOL    HW2 8883   2.389   4.075   2.159
 3022SOL     OW 8884   3.616   4.947   3.450
 3022SOL    HW1 8885   3.707   4.908   3.437
 3022SOL    HW2 8886   3.624   5.043   3.474
 3023SOL     OW 8887   3.500   4.823   2.941
 3023SOL    HW1 8888   3.505   4.904   3.000
 3023SOL    HW2 8889   3.414   4.825   2.890
 3024SOL     OW 8890   2.777   3.813   3.264
 3024SOL    HW1 8891   2.802   3.793   3.169
 3024SOL    HW2 8892   2.849   3.869   3.306
 3025SOL     OW 8893   2.842   4.840   3.581
 3025SOL    HW1 8894   2.743   4.846   3.591
 3025SOL    HW2 8895   2.865   4.760   3.525
 3026SOL     OW 8896   2.567   4.774   2.230
 3026SOL    HW1 8897   2.553   4.781   2.329
 3026SOL    HW2 8898   2.651   4.723   2.212
 3027SOL     OW 8899   2.272   4.537   3.113
 3027SOL    HW1 8900   2.358   4.549   3.163
 3027SOL    HW2 8901   2.230   4.450   3.140
 3028SOL     OW 8902   3.136   4.110   3.124
 3028SOL    HW1 8903   3.157   4.184   3.188
 3028SOL    HW2 8904   3.047   4.127   3.081
 3029SOL     OW 8905   2.229   4.824   2.363
 3029SOL    HW1 8906   2.222   4.907   2.307
 3029SOL    HW2 8907   2.233   4.744   2.303
 3030SOL     OW 8908   2.428   4.261   2.727
 3030SOL    HW1 8909   2.440   4.327   2.653
 3030SOL    HW2 8910   2.474   4.295   2.810
 3031SOL     OW 8911   3.444   4.363   2.334
 3031SOL    HW1 8912   3.413   4.424   2.407
 3031SOL    HW2 8913   3.494   4.415   2.265
 3032SOL     OW 8914   2.264   4.475   3.460
 3032SOL    HW1 8915   2.332   4.530   3.413
 3032SOL    HW2 8916   2.304   4.387   3.487
 3033SOL     OW 8917   3.449   4.503   3.532
 3033SOL    HW1 8918   3.357   4.541   3.527
 3033SOL    HW2 8919   3.509   4.550   3.467
 3034SOL     OW 8920   2.875   3.829   3.632
 3034SOL    HW1 8921   2.881   3.914   3.580
 3034SOL    HW2 8922   2.907   3.753   3.575
 3035SOL     OW 8923   2.366   3.774   3.602
 3035SOL    HW1 8924   2.324   3.717   3.532
 3035SOL    HW2 8925   2.300   3.843   3.634
 3036SOL     OW 8926   2.435   4.594   2.891
 3036SOL    HW1 8927   2.479   4.683   2.882
 3036SOL    HW2 8928   2.372   4.594   2.968
 3037SOL     OW 8929   3.222   4.586   2.907
 3037SOL    HW1 8930   3.147   4.586   2.841
 3037SOL    HW2 8931   3.259   4.494   2.916
 3038SOL     OW 8932   3.071   4.249   2.137
 3038SOL    HW1 8933   3.084   4.165   2.191
 3038SOL    HW2 8934   3.042   4.323   2.197
 3039SOL     OW 8935   2.169   3.937   3.093
 3039SOL    HW1 8936   2.146   3.974   3.183
 3039SOL    HW2 8937   2.139   3.842   3.087
 3040SOL     OW 8938   2.594   4.358   2.926
 3040SOL    HW1 8939   2.653   4.332   2.850
 3040SOL    HW2 8940   2.566   4.454   2.915
 3041SOL     OW 8941   3.590   4.659   3.716
 3041SOL    HW1 8942   3.544   4.652   3.627
 3041SOL    HW2 8943   3.528   4.703   3.782
 3042SOL     OW 8944   2.169   3.787   2.480
 3042SOL    HW1 8945   2.158   3.881   2.513
 3042SOL    HW2 8946   2.164   3.724   2.557
 3043SOL     OW 8947   3.484   4.091   2.236
 3043SOL    HW1 8948   3.486   4.015   2.300
 3043SOL    HW2 8949   3.436   4.168   2.276
 3044SOL     OW 8950   2.885   4.490   2.828
 3044SOL    HW1 8951   2.900   4.511   2.924
 3044SOL    HW2 8952   2.855   4.395   2.819
 3045SOL     OW 8953   3.721   5.242   3.467
 3045SOL    HW1 8954   3.735   5.269   3.372
 3045SOL    HW2 8955   3.804   5.264   3.520
 3046SOL     OW 8956   2.212   4.622   3.666
 3046SOL    HW1 8957   2.288   4.666   3.714
 3046SOL    HW2 8958   2.247   4.575   3.584
 3047SOL     OW 8959   3.402   3.998   1.987
 3047SOL    HW1 8960   3.341   3.923   2.010
 3047SOL    HW2 8961   3.424   4.050   2.070
 3048SOL     OW 8962   3.165   4.562   1.904
 3048SOL    HW1 8963   3.199   4.469   1.919
 3048SOL    HW2 8964   3.183   4.589   1.809
 3049SOL     OW 8965   2.181   4.534   2.811
 3049SOL    HW1 8966   2.274   4.570   2.816
 3049SOL    HW2 8967   2.175   4.449   2.863
 3050SOL     OW 8968   2.201   4.233   2.868
 3050SOL    HW1 8969   2.149   4.150   2.851
 3050SOL    HW2 8970   2.278   4.238   2.804
 3051SOL     OW 8971   3.000   4.104   3.540
 3051SOL    HW1 8972   2.955   4.167   3.604
 3051SOL    HW2 8973   3.093   4.135   3.523
 3052SOL     OW 8974   3.022   3.931   3.339
 3052SOL    HW1 8975   3.022   3.995   3.416
 3052SOL    HW2 8976   3.050   3.979   3.256
 3053SOL     OW 8977   1.870   5.050   2.062
 3053SOL    HW1 8978   1.777   5.071   2.031
 3053SOL    HW2 8979   1.880   4.951   2.075
 3054SOL     OW 8980   2.864   4.520   3.100
 3054SOL    HW1 8981   2.905   4.488   3.186
 3054SOL    HW2 8982   2.768   4.493   3.097
 3055SOL     OW 8983   1.902   4.268   2.976
 3055SOL    HW1 8984   1.987   4.235   2.935
 3055SOL    HW2 8985   1.915   4.283   3.074
 3056SOL     OW 8986   2.051   4.244   3.584
 3056SOL    HW1 8987   2.110   4.204   3.514
 3056SOL    HW2 8988   1.993   4.315   3.543
 3057SOL     OW 8989   3.231   4.674   3.522
 3057SOL    HW1 8990   3.270   4.763   3.542
 3057SOL    HW2 8991   3.241   4.654   3.425
 3058SOL     OW 8992   2.677   4.296   2.187
 3058SOL    HW1 8993   2.684   4.207   2.141
 3058SOL    HW2 8994   2.583   4.330   2.179
 3059SOL     OW 8995   3.519   4.328   3.068
 3059SOL    HW1 8996   3.481   4.259   3.130
 3059SOL    HW2 8997   3.601   4.292   3.024
 3060SOL     OW 8998   2.533   4.188   3.131
 3060SOL    HW1 8999   2.499   4.099   3.101
 3060SOL    HW2 9000   2.559   4.242   3.051
 3061SOL     OW 9001   2.335   4.224   2.053
 3061SOL    HW1 9002   2.396   4.304   2.057
 3061SOL    HW2 9003   2.240   4.255   2.060
 3062SOL     OW 9004   2.021   4.861   3.328
 3062SOL    HW1 9005   2.043   4.800   3.404
 3062SOL    HW2 9006   2.031   4.812   3.242
 3063SOL     OW 9007   3.209   4.783   3.096
 3063SOL    HW1 9008   3.233   4.720   3.022
 3063SOL    HW2 9009   3.119   4.823   3.078
 3064SOL     OW 9010   3.164   4.579   2.171
 3064SOL    HW1 9011   3.078   4.548   2.213
 3064SOL    HW2 9012   3.160   4.565   2.072
 3065SOL     OW 9013   1.945   4.982   2.884
 3065SOL    HW1 9014   1.940   4.981   2.984
 3065SOL    HW2 9015   1.862   4.941   2.846
 3066SOL     OW 9016   3.588   3.859   2.385
 3066SOL    HW1 9017   3.661   3.842   2.318
 3066SOL    HW2 9018   3.557   3.772   2.423
 3067SOL     OW 9019   3.142   4.651   2.534
 3067SOL    HW1 9020   3.202   4.570   2.536
 3067SOL    HW2 9021   3.182   4.720   2.474
 3068SOL     OW 9022   2.692   4.997   3.284
 3068SOL    HW1 9023   2.687   5.030   3.379
 3068SOL    HW2 9024   2.606   5.016   3.238
 3069SOL     OW 9025   3.703   3.899   2.825
 3069SOL    HW1 9026   3.742   3.814   2.789
 3069SOL    HW2 9027   3.605   3.901   2.806
 3070SOL     OW 9028   2.125   4.050   2.582
 3070SOL    HW1 9029   2.046   4.101   2.548
 3070SOL    HW2 9030   2.116   4.035   2.680
 3071SOL     OW 9031   3.056   5.336   1.893
 3071SOL    HW1 9032   3.062   5.243   1.930
 3071SOL    HW2 9033   2.997   5.336   1.813
 3072SOL     OW 9034   2.684   4.726   3.234
 3072SOL    HW1 9035   2.724   4.725   3.142
 3072SOL    HW2 9036   2.694   4.818   3.274
 3073SOL     OW 9037   2.778   4.634   2.153
 3073SOL    HW1 9038   2.841   4.672   2.085
 3073SOL    HW2 9039   2.818   4.551   2.192
 3074SOL     OW 9040   2.234   5.012   3.352
 3074SOL    HW1 9041   2.221   5.105   3.318
 3074SOL    HW2 9042   2.150   4.960   3.339
 3075SOL     OW 9043   3.476   5.016   3.151
 3075SOL    HW1 9044   3.536   5.019   3.231
 3075SOL    HW2 9045   3.401   5.080   3.164
 3076SOL     OW 9046   2.901   4.822   2.558
 3076SOL    HW1 9047   2.831   4.775   2.612
 3076SOL    HW2 9048   2.960   4.754   2.515
 3077SOL     OW 9049   2.876   3.960   2.833
 3077SOL    HW1 9050   2.868   3.924   2.740
 3077SOL    HW2 9051   2.874   3.884   2.898
 3078SOL     OW 9052   3.571   4.109   3.243
 3078SOL    HW1 9053   3.644   4.178   3.247
 3078SOL    HW2 9054   3.599   4.034   3.184
 3079SOL     OW 9055   1.967   4.737   3.588
 3079SOL    HW1 9056   1.890   4.704   3.642
 3079SOL    HW2 9057   2.052   4.707   3.630
 3080SOL     OW 9058   2.534   3.927   3.351
 3080SOL    HW1 9059   2.624   3.911   3.311
 3080SOL    HW2 9060   2.542   3.932   3.450
 3081SOL     OW 9061   1.937   4.069   1.895
 3081SOL    HW1 9062   1.845   4.041   1.866
 3081SOL    HW2 9063   1.968   4.146   1.839
 3082SOL     OW 9064   3.302   4.580   3.260
 3082SOL    HW1 9065   3.245   4.632   3.197
 3082SOL    HW2 9066   3.398   4.592   3.236
 3083SOL     OW 9067   1.934   3.890   2.180
 3083SOL    HW1 9068   1.917   3.973   2.126
 3083SOL    HW2 9069   2.024   3.853   2.158
 3084SOL     OW 9070   2.475   4.566   3.293
 3084SOL    HW1 9071   2.531   4.647   3.276
 3084SOL    HW2 9072   2.534   4.486   3.296
 3085SOL     OW 9073   2.578   4.289   3.570
 3085SOL    HW1 9074   2.597   4.354   3.644
 3085SOL    HW2 9075   2.638   4.209   3.579
 3086SOL     OW 9076   3.312   4.944   3.495
 3086SOL    HW1 9077   3.303   4.934   3.594
 3086SOL    HW2 9078   3.408   4.937   3.469
 3087SOL     OW 9079   3.536   4.607   3.116
 3087SOL    HW1 9080   3.509   4.518   3.079
 3087SOL    HW2 9081   3.537   4.675   3.043
 3088SOL     OW 9082   3.087   4.049   2.311
 3088SOL    HW1 9083   3.152   3.975   2.300
 3088SOL    HW2 9084   3.107   4.099   2.395
 3089SOL     OW 9085   2.456   4.469   2.514
 3089SOL    HW1 9086   2.506   4.554   2.495
 3089SOL    HW2 9087   2.368   4.471   2.466
 3090SOL     OW 9088   3.639   4.066   3.504
 3090SOL    HW1 9089   3.622   4.097   3.410
 3090SOL    HW2 9090   3.555   4.029   3.542
 3091SOL     OW 9091   3.592   4.658   3.379
 3091SOL    HW1 9092   3.630   4.749   3.394
 3091SOL    HW2 9093   3.584   4.641   3.280
 3092SOL     OW 9094   2.721   4.680   2.723
 3092SOL    HW1 9095   2.775   4.611   2.771
 3092SOL    HW2 9096   2.689   4.749   2.789
 3093SOL     OW 9097   2.945   4.708   1.949
 3093SOL    HW1 9098   2.922   4.761   1.867
 3093SOL    HW2 9099   3.026   4.652   1.930
 3094SOL     OW 9100   1.941   4.964   2.515
 3094SOL    HW1 9101   1.940   4.917   2.603
 3094SOL    HW2 9102   2.023   4.936   2.464
 3095SOL     OW 9103   3.686   3.916   3.089
 3095SOL    HW1 9104   3.682   3.826   3.133
 3095SOL    HW2 9105   3.689   3.905   2.990
 3096SOL     OW 9106   2.290   4.148   2.382
 3096SOL    HW1 9107   2.320   4.076   2.320
 3096SOL    HW2 9108   2.251   4.108   2.465
 3097SOL     OW 9109   2.179   4.271   3.142
 3097SOL    HW1 9110   2.217   4.212   3.214
 3097SOL    HW2 9111   2.219   4.245   3.054
 3098SOL     OW 9112   3.286   3.938   2.974
 3098SOL    HW1 9113   3.338   3.873   3.029
 3098SOL    HW2 9114   3.237   4.001   3.035
 3099SOL     OW 9115   2.863   3.758   3.016
 3099SOL    HW1 9116   2.800   3.686   2.985
 3099SOL    HW2 9117   2.956   3.722   3.016
 3100SOL     OW 9118   2.632   5.054   2.163
 3100SOL    HW1 9119   2.586   4.967   2.180
 3100SOL    HW2 9120   2.723   5.051   2.204
 3101SOL     OW 9121   3.214   3.776   2.030
 3101SOL    HW1 9122   3.249   3.735   1.946
 3101SOL    HW2 9123   3.124   3.738   2.050
 3102SOL     OW 9124   3.162   4.177   2.553
 3102SOL    HW1 9125   3.103   4.257   2.557
 3102SOL    HW2 9126   3.177   4.142   2.646
 3103SOL     OW 9127   3.455   3.945   2.744
 3103SOL    HW1 9128   3.371   3.944   2.798
 3103SOL    HW2 9129   3.457   4.028   2.688
 3104SOL     OW 9130   1.901   4.801   2.162
 3104SOL    HW1 9131   2.000   4.790   2.153
 3104SOL    HW2 9132   1.861   4.715   2.194
 3105SOL     OW 9133   2.092   4.352   3.837
 3105SOL    HW1 9134   1.999   4.350   3.874
 3105SOL    HW2 9135   2.093   4.313   3.745
 3106SOL     OW 9136   2.087   3.999   4.720
 3106SOL    HW1 9137   2.122   3.982   4.812
 3106SOL    HW2 9138   1.999   3.954   4.708
 3107SOL     OW 9139   1.881   4.092   4.371
 3107SOL    HW1 9140   1.799   4.135   4.410
 3107SOL    HW2 9141   1.853   4.019   4.308
 3108SOL     OW 9142   2.431   4.999   4.889
 3108SOL    HW1 9143   2.338   4.992   4.852
 3108SOL    HW2 9144   2.442   5.088   4.933
 3109SOL     OW 9145   3.417   5.235   4.427
 3109SOL    HW1 9146   3.360   5.219   4.508
 3109SOL    HW2 9147   3.358   5.245   4.347
 3110SOL     OW 9148   2.997   4.427   4.441
 3110SOL    HW1 9149   3.054   4.505   4.416
 3110SOL    HW2 9150   2.937   4.453   4.517
 3111SOL     OW 9151   3.617   4.331   3.955
 3111SOL    HW1 9152   3.605   4.318   3.856
 3111SOL    HW2 9153   3.587   4.250   4.004
 3112SOL     OW 9154   2.630   4.868   4.747
 3112SOL    HW1 9155   2.552   4.885   4.807
 3112SOL    HW2 9156   2.664   4.955   4.711
 3113SOL     OW 9157   2.547   4.736   4.389
 3113SOL    HW1 9158   2.616   4.720   4.459
 3113SOL    HW2 9159   2.474   4.793   4.427
 3114SOL     OW 9160   2.197   5.159   4.785
 3114SOL    HW1 9161   2.119   5.128   4.732
 3114SOL    HW2 9162   2.255   5.217   4.728
 3115SOL     OW 9163   3.465   4.171   4.461
 3115SOL    HW1 9164   3.391   4.217   4.411
 3115SOL    HW2 9165   3.516   4.239   4.514
 3116SOL     OW 9166   2.102   4.815   4.610
 3116SOL    HW1 9167   2.116   4.731   4.662
 3116SOL    HW2 9168   2.047   4.879   4.665
 3117SOL     OW 9169   2.468   4.688   3.847
 3117SOL    HW1 9170   2.475   4.772   3.793
 3117SOL    HW2 9171   2.514   4.701   3.935
 3118SOL     OW 9172   1.984   4.367   4.287
 3118SOL    HW1 9173   1.939   4.279   4.304
 3118SOL    HW2 9174   1.983   4.421   4.371
 3119SOL     OW 9175   3.551   4.646   4.336
 3119SOL    HW1 9176   3.646   4.617   4.344
 3119SOL    HW2 9177   3.543   4.711   4.261
 3120SOL     OW 9178   3.503   4.832   4.156
 3120SOL    HW1 9179   3.589   4.834   4.104
 3120SOL    HW2 9180   3.517   4.879   4.244
 3121SOL     OW 9181   2.671   3.728   4.226
 3121SOL    HW1 9182   2.711   3.819   4.217
 3121SOL    HW2 9183   2.571   3.736   4.232
 3122SOL     OW 9184   2.059   4.700   4.988
 3122SOL    HW1 9185   2.148   4.655   4.974
 3122SOL    HW2 9186   1.986   4.635   4.969
 3123SOL     OW 9187   3.387   4.723   3.914
 3123SOL    HW1 9188   3.324   4.647   3.927
 3123SOL    HW2 9189   3.435   4.741   4.000
 3124SOL     OW 9190   3.328   5.141   4.677
 3124SOL    HW1 9191   3.269   5.147   4.757
 3124SOL    HW2 9192   3.313   5.053   4.631
 3125SOL     OW 9193   2.460   4.453   3.994
 3125SOL    HW1 9194   2.484   4.522   3.926
 3125SOL    HW2 9195   2.382   4.486   4.048
 3126SOL     OW 9196   3.143   4.069   4.668
 3126SOL    HW1 9197   3.057   4.019   4.655
 3126SOL    HW2 9198   3.205   4.015   4.724
 3127SOL     OW 9199   2.853   4.134   4.966
 3127SOL    HW1 9200   2.776   4.168   5.020
 3127SOL    HW2 9201   2.819   4.083   4.887
 3128SOL     OW 9202   2.903   4.425   4.153
 3128SOL    HW1 9203   2.929   4.421   4.249
 3128SOL    HW2 9204   2.818   4.374   4.139
 3129SOL     OW 9205   1.938   4.535   4.513
 3129SOL    HW1 9206   2.037   4.523   4.522
 3129SOL    HW2 9207   1.914   4.630   4.534
 3130SOL     OW 9208   2.727   4.072   3.919
 3130SOL    HW1 9209   2.786   4.135   3.870
 3130SOL    HW2 9210   2.746   3.978   3.890
 3131SOL     OW 9211   3.224   4.868   4.269
 3131SOL    HW1 9212   3.307   4.839   4.221
 3131SOL    HW2 9213   3.175   4.935   4.213
 3132SOL     OW 9214   2.412   3.920   4.609
 3132SOL    HW1 9215   2.407   3.915   4.709
 3132SOL    HW2 9216   2.414   4.016   4.580
 3133SOL     OW 9217   3.657   4.790   4.597
 3133SOL    HW1 9218   3.595   4.775   4.521
 3133SOL    HW2 9219   3.605   4.801   4.682
 3134SOL     OW 9220   2.183   4.667   3.966
 3134SOL    HW1 9221   2.265   4.706   3.924
 3134SOL    HW2 9222   2.156   4.585   3.917
 3135SOL     OW 9223   3.320   4.459   4.452
 3135SOL    HW1 9224   3.315   4.394   4.527
 3135SOL    HW2 9225   3.400   4.518   4.465
 3136SOL     OW 9226   3.494   5.101   3.805
 3136SOL    HW1 9227   3.462   5.195   3.795
 3136SOL    HW2 9228   3.418   5.038   3.793
 3137SOL     OW 9229   3.262   3.831   4.150
 3137SOL    HW1 9230   3.238   3.794   4.060
 3137SOL    HW2 9231   3.361   3.847   4.154
 3138SOL     OW 9232   2.244   4.424   4.204
 3138SOL    HW1 9233   2.289   4.334   4.201
 3138SOL    HW2 9234   2.150   4.413   4.237
 3139SOL     OW 9235   2.476   3.846   3.841
 3139SOL    HW1 9236   2.574   3.824   3.848
 3139SOL    HW2 9237   2.445   3.829   3.748
 3140SOL     OW 9238   2.665   5.126   4.648
 3140SOL    HW1 9239   2.755   5.140   4.606
 3140SOL    HW2 9240   2.594   5.128   4.577
 3141SOL     OW 9241   2.784   4.227   4.623
 3141SOL    HW1 9242   2.759   4.218   4.527
 3141SOL    HW2 9243   2.832   4.145   4.654
 3142SOL     OW 9244   2.401   3.788   4.236
 3142SOL    HW1 9245   2.320   3.789   4.294
 3142SOL    HW2 9246   2.404   3.871   4.181
 3143SOL     OW 9247   3.296   4.912   3.765
 3143SOL    HW1 9248   3.328   4.836   3.822
 3143SOL    HW2 9249   3.204   4.939   3.795
 3144SOL     OW 9250   2.159   3.759   3.895
 3144SOL    HW1 9251   2.208   3.843   3.874
 3144SOL    HW2 9252   2.221   3.694   3.940
 3145SOL     OW 9253   2.797   3.960   4.204
 3145SOL    HW1 9254   2.749   4.001   4.126
 3145SOL    HW2 9255   2.896   3.958   4.185
 3146SOL     OW 9256   3.089   5.294   4.517
 3146SOL    HW1 9257   3.110   5.368   4.452
 3146SOL    HW2 9258   3.157   5.294   4.590
 3147SOL     OW 9259   2.321   4.876   4.465
 3147SOL    HW1 9260   2.250   4.849   4.530
 3147SOL    HW2 9261   2.295   4.848   4.372
 3148SOL     OW 9262   2.894   4.273   3.740
 3148SOL    HW1 9263   2.853   4.355   3.701
 3148SOL    HW2 9264   2.958   4.299   3.813
 3149SOL     OW 9265   2.423   3.946   4.871
 3149SOL    HW1 9266   2.461   3.862   4.908
 3149SOL    HW2 9267   2.335   3.965   4.915
 3150SOL     OW 9268   2.728   4.178   4.366
 3150SOL    HW1 9269   2.696   4.250   4.304
 3150SOL    HW2 9270   2.752   4.097   4.313
 3151SOL     OW 9271   2.879   3.763   4.477
 3151SOL    HW1 9272   2.807   3.768   4.408
 3151SOL    HW2 9273   2.855   3.694   4.546
 3152SOL     OW 9274   3.291   4.897   4.591
 3152SOL    HW1 9275   3.236   4.813   4.584
 3152SOL    HW2 9276   3.317   4.926   4.499
 3153SOL     OW 9277   3.328   4.314   4.716
 3153SOL    HW1 9278   3.298   4.219   4.723
 3153SOL    HW2 9279   3.401   4.330   4.782
 3154SOL     OW 9280   3.719   4.557   4.101
 3154SOL    HW1 9281   3.761   4.493   4.165
 3154SOL    HW2 9282   3.681   4.506   4.023
 3155SOL     OW 9283   3.526   5.004   4.381
 3155SOL    HW1 9284   3.625   5.012   4.395
 3155SOL    HW2 9285   3.481   5.088   4.412
 3156SOL     OW 9286   3.252   4.299   3.802
 3156SOL    HW1 9287   3.198   4.278   3.883
 3156SOL    HW2 9288   3.343   4.258   3.811
 3157SOL     OW 9289   2.389   3.980   4.052
 3157SOL    HW1 9290   2.416   3.921   3.977
 3157SOL    HW2 9291   2.389   4.075   4.021
 3158SOL     OW 9292   3.500   4.823   4.803
 3158SOL    HW1 9293   3.505   4.904   4.862
 3158SOL    HW2 9294   3.414   4.825   4.752
 3159SOL     OW 9295   2.567   4.774   4.092
 3159SOL    HW1 9296   2.553   4.781   4.191
 3159SOL    HW2 9297   2.651   4.723   4.074
 3160SOL     OW 9298   2.272   4.537   4.975
 3160SOL    HW1 9299   2.358   4.549   5.025
 3160SOL    HW2 9300   2.230   4.450   5.002
 3161SOL     OW 9301   3.136   4.110   4.986
 3161SOL    HW1 9302   3.157   4.184   5.050
 3161SOL    HW2 9303   3.047   4.127   4.943
 3162SOL     OW 9304   2.229   4.824   4.225
 3162SOL    HW1 9305   2.222   4.907   4.169
 3162SOL    HW2 9306   2.233   4.744   4.165
 3163SOL     OW 9307   2.428   4.261   4.589
 3163SOL    HW1 9308   2.440   4.327   4.515
 3163SOL    HW2 9309   2.474   4.295   4.672
 3164SOL     OW 9310   3.444   4.363   4.196
 3164SOL    HW1 9311   3.413   4.424   4.269
 3164SOL    HW2 9312   3.494   4.415   4.127
 3165SOL     OW 9313   2.435   4.594   4.753
 3165SOL    HW1 9314   2.479   4.683   4.744
 3165SOL    HW2 9315   2.372   4.594   4.830
 3166SOL     OW 9316   3.222   4.586   4.769
 3166SOL    HW1 9317   3.147   4.586   4.703
 3166SOL    HW2 9318   3.259   4.494   4.778
 3167SOL     OW 9319   3.071   4.249   3.999
 3167SOL    HW1 9320   3.084   4.165   4.053
 3167SOL    HW2 9321   3.042   4.323   4.059
 3168SOL     OW 9322   2.169   3.937   4.955
 3168SOL    HW1 9323   2.146   3.974   5.045
 3168SOL    HW2 9324   2.139   3.842   4.949
 3169SOL     OW 9325   2.594   4.358   4.788
 3169SOL    HW1 9326   2.653   4.332   4.712
 3169SOL    HW2 9327   2.566   4.454   4.777
 3170SOL     OW 9328   2.169   3.787   4.342
 3170SOL    HW1 9329   2.158   3.881   4.375
 3170SOL    HW2 9330   2.164   3.724   4.419
 3171SOL     OW 9331   3.484   4.091   4.098
 3171SOL    HW1 9332   3.486   4.015   4.162
 3171SOL    HW2 9333   3.436   4.168   4.138
 3172SOL     OW 9334   2.885   4.490   4.690
 3172SOL    HW1 9335   2.900   4.511   4.786
 3172SOL    HW2 9336   2.855   4.395   4.681
 3173SOL     OW 9337   3.402   3.998   3.849
 3173SOL    HW1 9338   3.341   3.923   3.872
 3173SOL    HW2 9339   3.424   4.050   3.932
 3174SOL     OW 9340   3.165   4.562   3.766
 3174SOL    HW1 9341   3.199   4.469   3.781
 3174SOL    HW2 9342   3.183   4.589   3.671
 3175SOL     OW 9343   2.181   4.534   4.673
 3175SOL    HW1 9344   2.274   4.570   4.678
 3175SOL    HW2 9345   2.175   4.449   4.725
 3176SOL     OW 9346   2.201   4.233   4.730
 3176SOL    HW1 9347   2.149   4.150   4.713
 3176SOL    HW2 9348   2.278   4.238   4.666
 3177SOL     OW 9349   3.022   3.931   5.201
 3177SOL    HW1 9350   3.022   3.995   5.278
 3177SOL    HW2 9351   3.050   3.979   5.118
 3178SOL     OW 9352   1.870   5.050   3.924
 3178SOL    HW1 9353   1.777   5.071   3.893
 3178SOL    HW2 9354   1.880   4.951   3.937
 3179SOL     OW 9355   2.864   4.520   4.962
 3179SOL    HW1 9356   2.905   4.488   5.048
 3179SOL    HW2 9357   2.768   4.493   4.959
 3180SOL     OW 9358   1.902   4.268   4.838
 3180SOL    HW1 9359   1.987   4.235   4.797
 3180SOL    HW2 9360   1.915   4.283   4.936
 3181SOL     OW 9361   2.677   4.296   4.049
 3181SOL    HW1 9362   2.684   4.207   4.003
 3181SOL    HW2 9363   2.583   4.330   4.041
 3182SOL     OW 9364   3.519   4.328   4.930
 3182SOL    HW1 9365   3.481   4.259   4.992
 3182SOL    HW2 9366   3.601   4.292   4.886
 3183SOL     OW 9367   2.533   4.188   4.993
 3183SOL    HW1 9368   2.499   4.099   4.963
 3183SOL    HW2 9369   2.559   4.242   4.913
 3184SOL     OW 9370   2.335   4.224   3.915
 3184SOL    HW1 9371   2.396   4.304   3.919
 3184SOL    HW2 9372   2.240   4.255   3.922
 3185SOL     OW 9373   3.209   4.783   4.958
 3185SOL    HW1 9374   3.233   4.720   4.884
 3185SOL    HW2 9375   3.119   4.823   4.940
 3186SOL     OW 9376   3.164   4.579   4.033
 3186SOL    HW1 9377   3.078   4.548   4.075
 3186SOL    HW2 9378   3.160   4.565   3.934
 3187SOL     OW 9379   1.945   4.982   4.746
 3187SOL    HW1 9380   1.940   4.981   4.846
 3187SOL    HW2 9381   1.862   4.941   4.708
 3188SOL     OW 9382   3.588   3.859   4.247
 3188SOL    HW1 9383   3.661   3.842   4.180
 3188SOL    HW2 9384   3.557   3.772   4.285
 3189SOL     OW 9385   3.142   4.651   4.396
 3189SOL    HW1 9386   3.202   4.570   4.398
 3189SOL    HW2 9387   3.182   4.720   4.336
 3190SOL     OW 9388   2.692   4.997   5.146
 3190SOL    HW1 9389   2.687   5.030   5.241
 3190SOL    HW2 9390   2.606   5.016   5.100
 3191SOL     OW 9391   3.703   3.899   4.687
 3191SOL    HW1 9392   3.742   3.814   4.651
 3191SOL    HW2 9393   3.605   3.901   4.668
 3192SOL     OW 9394   2.125   4.050   4.444
 3192SOL    HW1 9395   2.046   4.101   4.410
 3192SOL    HW2 9396   2.116   4.035   4.542
 3193SOL     OW 9397   3.056   5.336   3.755
 3193SOL    HW1 9398   3.062   5.243   3.792
 3193SOL    HW2 9399   2.997   5.336   3.675
 3194SOL     OW 9400   2.684   4.726   5.096
 3194SOL    HW1 9401   2.724   4.725   5.004
 3194SOL    HW2 9402   2.694   4.818   5.136
 3195SOL     OW 9403   2.778   4.634   4.015
 3195SOL    HW1 9404   2.841   4.672   3.947
 3195SOL    HW2 9405   2.818   4.551   4.054
 3196SOL     OW 9406   2.901   4.822   4.420
 3196SOL    HW1 9407   2.831   4.775   4.474
 3196SOL    HW2 9408   2.960   4.754   4.377
 3197SOL     OW 9409   2.876   3.960   4.695
 3197SOL    HW1 9410   2.868   3.924   4.602
 3197SOL    HW2 9411   2.874   3.884   4.760
 3198SOL     OW 9412   3.571   4.109   5.105
 3198SOL    HW1 9413   3.644   4.178   5.109
 3198SOL    HW2 9414   3.599   4.034   5.046
 3199SOL     OW 9415   1.937   4.069   3.757
 3199SOL    HW1 9416   1.845   4.041   3.728
 3199SOL    HW2 9417   1.968   4.146   3.701
 3200SOL     OW 9418   1.934   3.890   4.042
 3200SOL    HW1 9419   1.917   3.973   3.988
 3200SOL    HW2 9420   2.024   3.853   4.020
 3201SOL     OW 9421   3.312   4.944   5.357
 3201SOL    HW1 9422   3.303   4.934   5.456
 3201SOL    HW2 9423   3.408   4.937   5.331
 3202SOL     OW 9424   3.536   4.607   4.978
 3202SOL    HW1 9425   3.509   4.518   4.941
 3202SOL    HW2 9426   3.537   4.675   4.905
 3203SOL     OW 9427   3.087   4.049   4.173
 3203SOL    HW1 9428   3.152   3.975   4.162
 3203SOL    HW2 9429   3.107   4.099   4.257
 3204SOL     OW 9430   2.456   4.469   4.376
 3204SOL    HW1 9431   2.506   4.554   4.357
 3204SOL    HW2 9432   2.368   4.471   4.328
 3205SOL     OW 9433   3.592   4.658   5.241
 3205SOL    HW1 9434   3.630   4.749   5.256
 3205SOL    HW2 9435   3.584   4.641   5.142
 3206SOL     OW 9436   2.721   4.680   4.585
 3206SOL    HW1 9437   2.775   4.611   4.633
 3206SOL    HW2 9438   2.689   4.749   4.651
 3207SOL     OW 9439   2.945   4.708   3.811
 3207SOL    HW1 9440   2.922   4.761   3.729
 3207SOL    HW2 9441   3.026   4.652   3.792
 3208SOL     OW 9442   1.941   4.964   4.377
 3208SOL    HW1 9443   1.940   4.917   4.465
 3208SOL    HW2 9444   2.023   4.936   4.326
 3209SOL     OW 9445   3.686   3.916   4.951
 3209SOL    HW1 9446   3.682   3.826   4.995
 3209SOL    HW2 9447   3.689   3.905   4.852
 3210SOL     OW 9448   2.290   4.148   4.244
 3210SOL    HW1 9449   2.320   4.076   4.182
 3210SOL    HW2 9450   2.251   4.108   4.327
 3211SOL     OW 9451   3.286   3.938   4.836
 3211SOL    HW1 9452   3.338   3.873   4.891
 3211SOL    HW2 9453   3.237   4.001   4.897
 3212SOL     OW 9454   2.863   3.758   4.878
 3212SOL    HW1 9455   2.800   3.686   4.847
 3212SOL    HW2 9456   2.956   3.722   4.878
 3213SOL     OW 9457   2.632   5.054   4.025
 3213SOL    HW1 9458   2.586   4.967   4.042
 3213SOL    HW2 9459   2.723   5.051   4.066
 3214SOL     OW 9460   3.214   3.776   3.892
 3214SOL    HW1 9461   3.249   3.735   3.808
 3214SOL    HW2 9462   3.124   3.738   3.912
 3215SOL     OW 9463   3.162   4.177   4.415
 3215SOL    HW1 9464   3.103   4.257   4.419
 3215SOL    HW2 9465   3.177   4.142   4.508
 3216SOL     OW 9466   3.455   3.945   4.606
 3216SOL    HW1 9467   3.371   3.944   4.660
 3216SOL    HW2 9468   3.457   4.028   4.550
 3217SOL     OW 9469   1.901   4.801   4.024
 3217SOL    HW1 9470   2.000   4.790   4.015
 3217SOL    HW2 9471   1.861   4.715   4.056
 3218SOL     OW 9472   3.954   0.628   0.113
 3218SOL    HW1 9473   3.861   0.626   0.150
 3218SOL    HW2 9474   3.955   0.589   0.021
 3219SOL     OW 9475   3.949   0.275   0.996
 3219SOL    HW1 9476   3.984   0.258   1.088
 3219SOL    HW2 9477   3.861   0.230   0.984
 3220SOL     OW 9478   3.743   0.368   0.647
 3220SOL    HW1 9479   3.661   0.411   0.686
 3220SOL    HW2 9480   3.715   0.295   0.584
 3221SOL     OW 9481   4.293   1.275   1.165
 3221SOL    HW1 9482   4.200   1.268   1.128
 3221SOL    HW2 9483   4.304   1.364   1.209
 3222SOL     OW 9484   4.859   0.703   0.717
 3222SOL    HW1 9485   4.916   0.781   0.692
 3222SOL    HW2 9486   4.799   0.729   0.793
 3223SOL     OW 9487   4.492   1.144   1.023
 3223SOL    HW1 9488   4.414   1.161   1.083
 3223SOL    HW2 9489   4.526   1.231   0.987
 3224SOL     OW 9490   4.574   0.798   1.823
 3224SOL    HW1 9491   4.570   0.874   1.888
 3224SOL    HW2 9492   4.596   0.834   1.732
 3225SOL     OW 9493   4.409   1.012   0.665
 3225SOL    HW1 9494   4.478   0.996   0.735
 3225SOL    HW2 9495   4.336   1.069   0.703
 3226SOL     OW 9496   4.410   1.161   1.803
 3226SOL    HW1 9497   4.470   1.240   1.817
 3226SOL    HW2 9498   4.324   1.192   1.762
 3227SOL     OW 9499   4.059   1.435   1.061
 3227SOL    HW1 9500   3.981   1.404   1.008
 3227SOL    HW2 9501   4.117   1.493   1.004
 3228SOL     OW 9502   4.162   0.392   1.499
 3228SOL    HW1 9503   4.244   0.336   1.508
 3228SOL    HW2 9504   4.081   0.334   1.503
 3229SOL     OW 9505   3.955   1.713   0.483
 3229SOL    HW1 9506   3.989   1.790   0.537
 3229SOL    HW2 9507   3.999   1.713   0.393
 3230SOL     OW 9508   4.851   1.341   1.690
 3230SOL    HW1 9509   4.898   1.341   1.778
 3230SOL    HW2 9510   4.803   1.254   1.679
 3231SOL     OW 9511   3.954   1.434   0.538
 3231SOL    HW1 9512   3.928   1.530   0.538
 3231SOL    HW2 9513   3.883   1.380   0.583
 3232SOL     OW 9514   3.964   1.091   0.886
 3232SOL    HW1 9515   3.978   1.007   0.938
 3232SOL    HW2 9516   3.909   1.155   0.941
 3233SOL     OW 9517   4.344   1.786   1.439
 3233SOL    HW1 9518   4.252   1.769   1.474
 3233SOL    HW2 9519   4.372   1.878   1.465
 3234SOL     OW 9520   4.330   0.964   0.123
 3234SOL    HW1 9521   4.337   1.048   0.069
 3234SOL    HW2 9522   4.376   0.977   0.211
 3235SOL     OW 9523   3.846   0.643   0.563
 3235SOL    HW1 9524   3.801   0.555   0.580
 3235SOL    HW2 9525   3.845   0.697   0.647
 3236SOL     OW 9526   3.751   1.596   0.117
 3236SOL    HW1 9527   3.732   1.500   0.138
 3236SOL    HW2 9528   3.718   1.654   0.192
 3237SOL     OW 9529   3.837   0.737   1.597
 3237SOL    HW1 9530   3.925   0.724   1.642
 3237SOL    HW2 9531   3.824   0.834   1.575
 3238SOL     OW 9532   4.337   1.365   0.726
 3238SOL    HW1 9533   4.288   1.278   0.735
 3238SOL    HW2 9534   4.314   1.408   0.639
 3239SOL     OW 9535   5.017   1.228   1.423
 3239SOL    HW1 9536   5.054   1.155   1.365
 3239SOL    HW2 9537   5.069   1.233   1.508
 3240SOL     OW 9538   4.533   0.004   0.502
 3240SOL    HW1 9539   4.573   0.095   0.493
 3240SOL    HW2 9540   4.433   0.012   0.508
 3241SOL     OW 9541   3.921   0.976   1.264
 3241SOL    HW1 9542   4.010   0.931   1.250
 3241SOL    HW2 9543   3.848   0.911   1.245
 3242SOL     OW 9544   4.911   1.792   1.616
 3242SOL    HW1 9545   4.935   1.852   1.540
 3242SOL    HW2 9546   4.918   1.697   1.586
 3243SOL     OW 9547   4.041   0.251   1.801
 3243SOL    HW1 9548   4.112   0.322   1.807
 3243SOL    HW2 9549   3.953   0.290   1.829
 3244SOL     OW 9550   4.322   0.729   0.270
 3244SOL    HW1 9551   4.346   0.798   0.202
 3244SOL    HW2 9552   4.244   0.762   0.324
 3245SOL     OW 9553   5.005   0.345   0.944
 3245SOL    HW1 9554   4.919   0.295   0.931
 3245SOL    HW2 9555   5.067   0.291   1.000
 3246SOL     OW 9556   4.531   0.605   1.465
 3246SOL    HW1 9557   4.484   0.602   1.554
 3246SOL    HW2 9558   4.480   0.550   1.399
 3247SOL     OW 9559   4.697   0.890   1.572
 3247SOL    HW1 9560   4.743   0.806   1.543
 3247SOL    HW2 9561   4.641   0.924   1.497
 3248SOL     OW 9562   4.715   0.410   1.242
 3248SOL    HW1 9563   4.638   0.444   1.296
 3248SOL    HW2 9564   4.681   0.359   1.163
 3249SOL     OW 9565   4.765   0.701   0.429
 3249SOL    HW1 9566   4.791   0.697   0.525
 3249SOL    HW2 9567   4.680   0.650   0.415
 3250SOL     OW 9568   3.800   0.811   0.789
 3250SOL    HW1 9569   3.899   0.799   0.798
 3250SOL    HW2 9570   3.776   0.906   0.810
 3251SOL     OW 9571   3.854   1.821   1.571
 3251SOL    HW1 9572   3.844   1.806   1.670
 3251SOL    HW2 9573   3.768   1.857   1.535
 3252SOL     OW 9574   4.589   0.348   0.195
 3252SOL    HW1 9575   4.648   0.411   0.146
 3252SOL    HW2 9576   4.608   0.254   0.166
 3253SOL     OW 9577   4.274   0.196   0.885
 3253SOL    HW1 9578   4.269   0.191   0.985
 3253SOL    HW2 9579   4.276   0.292   0.856
 3254SOL     OW 9580   4.732   1.456   0.477
 3254SOL    HW1 9581   4.686   1.528   0.425
 3254SOL    HW2 9582   4.728   1.476   0.575
 3255SOL     OW 9583   4.075   1.801   0.853
 3255SOL    HW1 9584   4.125   1.715   0.859
 3255SOL    HW2 9585   4.140   1.878   0.850
 3256SOL     OW 9586   4.951   1.550   1.506
 3256SOL    HW1 9587   4.957   1.473   1.570
 3256SOL    HW2 9588   4.899   1.524   1.426
 3257SOL     OW 9589   4.045   0.943   0.242
 3257SOL    HW1 9590   4.127   0.982   0.200
 3257SOL    HW2 9591   4.018   0.861   0.193
 3258SOL     OW 9592   4.185   1.266   1.727
 3258SOL    HW1 9593   4.135   1.267   1.641
 3258SOL    HW2 9594   4.122   1.248   1.803
 3259SOL     OW 9595   4.835   1.776   0.237
 3259SOL    HW1 9596   4.775   1.714   0.287
 3259SOL    HW2 9597   4.866   1.732   0.152
 3260SOL     OW 9598   3.926   0.285   1.498
 3260SOL    HW1 9599   3.846   0.345   1.485
 3260SOL    HW2 9600   3.916   0.236   1.584
 3261SOL     OW 9601   5.356   1.377   0.081
 3261SOL    HW1 9602   5.324   1.471   0.071
 3261SOL    HW2 9603   5.280   1.314   0.069
 3262SOL     OW 9604   4.188   1.743   0.323
 3262SOL    HW1 9605   4.221   1.782   0.409
 3262SOL    HW2 9606   4.264   1.736   0.258
 3263SOL     OW 9607   3.973   1.785   1.241
 3263SOL    HW1 9608   4.030   1.720   1.291
 3263SOL    HW2 9609   3.957   1.752   1.148
 3264SOL     OW 9610   4.664   1.698   0.904
 3264SOL    HW1 9611   4.744   1.641   0.925
 3264SOL    HW2 9612   4.615   1.658   0.827
 3265SOL     OW 9613   4.106   0.700   0.480
 3265SOL    HW1 9614   4.151   0.610   0.477
 3265SOL    HW2 9615   4.012   0.689   0.513
 3266SOL     OW 9616   4.338   0.122   0.117
 3266SOL    HW1 9617   4.436   0.100   0.124
 3266SOL    HW2 9618   4.307   0.105   0.024
 3267SOL     OW 9619   4.505   0.264   1.749
 3267SOL    HW1 9620   4.572   0.203   1.792
 3267SOL    HW2 9621   4.432   0.283   1.814
 3268SOL     OW 9622   4.612   1.514   1.195
 3268SOL    HW1 9623   4.589   1.489   1.101
 3268SOL    HW2 9624   4.673   1.445   1.234
 3269SOL     OW 9625   4.527   1.402   0.924
 3269SOL    HW1 9626   4.617   1.416   0.882
 3269SOL    HW2 9627   4.456   1.404   0.853
 3270SOL     OW 9628   4.646   0.503   0.899
 3270SOL    HW1 9629   4.621   0.494   0.803
 3270SOL    HW2 9630   4.694   0.421   0.930
 3271SOL     OW 9631   4.263   0.064   0.512
 3271SOL    HW1 9632   4.182   0.065   0.570
 3271SOL    HW2 9633   4.266   0.147   0.457
 3272SOL     OW 9634   4.021   0.035   0.171
 3272SOL    HW1 9635   4.070   0.119   0.150
 3272SOL    HW2 9636   4.083  -0.030   0.216
 3273SOL     OW 9637   4.659   0.236   0.480
 3273SOL    HW1 9638   4.611   0.277   0.402
 3273SOL    HW2 9639   4.758   0.234   0.461
 3274SOL     OW 9640   4.800   0.683   1.464
 3274SOL    HW1 9641   4.720   0.622   1.467
 3274SOL    HW2 9642   4.881   0.630   1.440
 3275SOL     OW 9643   4.951   1.570   0.793
 3275SOL    HW1 9644   4.972   1.644   0.728
 3275SOL    HW2 9645   5.019   1.570   0.866
 3276SOL     OW 9646   4.183   1.152   0.741
 3276SOL    HW1 9647   4.112   1.125   0.806
 3276SOL    HW2 9648   4.157   1.124   0.648
 3277SOL     OW 9649   4.995   1.797   0.591
 3277SOL    HW1 9650   5.039   1.861   0.527
 3277SOL    HW2 9651   4.945   1.849   0.661
 3278SOL     OW 9652   4.756   0.549   0.016
 3278SOL    HW1 9653   4.715   0.631  -0.023
 3278SOL    HW2 9654   4.820   0.575   0.089
 3279SOL     OW 9655   3.802   0.556   1.386
 3279SOL    HW1 9656   3.894   0.555   1.345
 3279SOL    HW2 9657   3.796   0.630   1.453
 3280SOL     OW 9658   4.285   0.222   1.147
 3280SOL    HW1 9659   4.323   0.138   1.184
 3280SOL    HW2 9660   4.197   0.241   1.191
 3281SOL     OW 9661   4.590   0.454   0.642
 3281SOL    HW1 9662   4.558   0.526   0.580
 3281SOL    HW2 9663   4.614   0.373   0.589
 3282SOL     OW 9664   4.741   0.039   0.753
 3282SOL    HW1 9665   4.669   0.044   0.684
 3282SOL    HW2 9666   4.717  -0.030   0.822
 3283SOL     OW 9667   4.212   1.385   0.174
 3283SOL    HW1 9668   4.125   1.370   0.221
 3283SOL    HW2 9669   4.195   1.411   0.079
 3284SOL     OW 9670   5.388   1.280   0.657
 3284SOL    HW1 9671   5.487   1.288   0.671
 3284SOL    HW2 9672   5.343   1.364   0.688
 3285SOL     OW 9673   4.251   0.256   0.328
 3285SOL    HW1 9674   4.278   0.197   0.253
 3285SOL    HW2 9675   4.251   0.351   0.297
 3286SOL     OW 9676   4.788   1.347   1.340
 3286SOL    HW1 9677   4.708   1.324   1.395
 3286SOL    HW2 9678   4.871   1.321   1.389
 3287SOL     OW 9679   4.835   1.195   1.100
 3287SOL    HW1 9680   4.795   1.239   1.181
 3287SOL    HW2 9681   4.794   1.232   1.017
 3288SOL     OW 9682   4.639   0.089   1.402
 3288SOL    HW1 9683   4.664   0.069   1.307
 3288SOL    HW2 9684   4.711   0.145   1.444
 3289SOL     OW 9685   4.704   1.116   1.719
 3289SOL    HW1 9686   4.605   1.122   1.729
 3289SOL    HW2 9687   4.727   1.036   1.663
 3290SOL     OW 9688   4.429   1.050   0.368
 3290SOL    HW1 9689   4.415   1.057   0.467
 3290SOL    HW2 9690   4.513   0.999   0.350
 3291SOL     OW 9691   4.134   0.813   1.251
 3291SOL    HW1 9692   4.220   0.825   1.301
 3291SOL    HW2 9693   4.092   0.726   1.278
 3292SOL     OW 9694   4.998   0.386   1.262
 3292SOL    HW1 9695   5.019   0.460   1.326
 3292SOL    HW2 9696   4.909   0.403   1.219
 3293SOL     OW 9697   3.788   1.564   1.331
 3293SOL    HW1 9698   3.742   1.646   1.297
 3293SOL    HW2 9699   3.886   1.583   1.340
 3294SOL     OW 9700   4.091   1.100   0.501
 3294SOL    HW1 9701   4.084   1.183   0.445
 3294SOL    HW2 9702   4.095   1.020   0.441
 3295SOL     OW 9703   4.290   0.537   0.865
 3295SOL    HW1 9704   4.302   0.603   0.791
 3295SOL    HW2 9705   4.336   0.571   0.948
 3296SOL     OW 9706   4.976   1.348   0.388
 3296SOL    HW1 9707   5.026   1.425   0.428
 3296SOL    HW2 9708   4.881   1.350   0.420
 3297SOL     OW 9709   4.078   1.510   1.329
 3297SOL    HW1 9710   4.057   1.466   1.242
 3297SOL    HW2 9711   4.175   1.536   1.332
 3298SOL     OW 9712   4.126   0.751   1.598
 3298SOL    HW1 9713   4.194   0.806   1.551
 3298SOL    HW2 9714   4.166   0.663   1.625
 3299SOL     OW 9715   4.737   0.105   1.770
 3299SOL    HW1 9716   4.743   0.190   1.718
 3299SOL    HW2 9717   4.769   0.029   1.713
 3300SOL     OW 9718   4.228   0.050   1.740
 3300SOL    HW1 9719   4.186  -0.007   1.670
 3300SOL    HW2 9720   4.162   0.119   1.772
 3301SOL     OW 9721   4.297   0.870   1.029
 3301SOL    HW1 9722   4.341   0.959   1.020
 3301SOL    HW2 9723   4.234   0.870   1.106
 3302SOL     OW 9724   5.084   0.862   1.045
 3302SOL    HW1 9725   5.009   0.862   0.979
 3302SOL    HW2 9726   5.121   0.770   1.054
 3303SOL     OW 9727   4.933   0.525   0.275
 3303SOL    HW1 9728   4.946   0.441   0.329
 3303SOL    HW2 9729   4.904   0.599   0.335
 3304SOL     OW 9730   4.031   0.213   1.231
 3304SOL    HW1 9731   4.008   0.250   1.321
 3304SOL    HW2 9732   4.001   0.118   1.225
 3305SOL     OW 9733   3.761   1.310   1.282
 3305SOL    HW1 9734   3.814   1.261   1.350
 3305SOL    HW2 9735   3.783   1.408   1.287
 3306SOL     OW 9736   4.456   0.634   1.064
 3306SOL    HW1 9737   4.515   0.608   0.988
 3306SOL    HW2 9738   4.428   0.730   1.053
 3307SOL     OW 9739   4.031   0.063   0.618
 3307SOL    HW1 9740   4.020   0.157   0.651
 3307SOL    HW2 9741   4.026   0.000   0.695
 3308SOL     OW 9742   5.346   0.367   0.374
 3308SOL    HW1 9743   5.348   0.291   0.438
 3308SOL    HW2 9744   5.298   0.444   0.414
 3309SOL     OW 9745   4.747   0.766   0.966
 3309SOL    HW1 9746   4.762   0.787   1.062
 3309SOL    HW2 9747   4.717   0.671   0.957
 3310SOL     OW 9748   4.704   1.573   1.700
 3310SOL    HW1 9749   4.684   1.617   1.612
 3310SOL    HW2 9750   4.743   1.482   1.684
 3311SOL     OW 9751   4.074   0.898   1.804
 3311SOL    HW1 9752   4.150   0.942   1.852
 3311SOL    HW2 9753   4.109   0.851   1.722
 3312SOL     OW 9754   5.027   0.838   0.042
 3312SOL    HW1 9755   5.061   0.745   0.057
 3312SOL    HW2 9756   5.045   0.865  -0.053
 3313SOL     OW 9757   4.792   1.333   0.849
 3313SOL    HW1 9758   4.799   1.249   0.794
 3313SOL    HW2 9759   4.854   1.402   0.813
 3314SOL     OW 9760   4.043   0.810   0.949
 3314SOL    HW1 9761   4.136   0.846   0.954
 3314SOL    HW2 9762   4.037   0.725   1.001
 3315SOL     OW 9763   4.063   0.509   1.006
 3315SOL    HW1 9764   4.011   0.426   0.989
 3315SOL    HW2 9765   4.140   0.514   0.942
 3316SOL     OW 9766   4.862   0.380   1.678
 3316SOL    HW1 9767   4.817   0.443   1.742
 3316SOL    HW2 9768   4.955   0.411   1.661
 3317SOL     OW 9769   4.884   0.207   1.477
 3317SOL    HW1 9770   4.884   0.271   1.554
 3317SOL    HW2 9771   4.912   0.255   1.394
 3318SOL     OW 9772   3.812   1.801   0.927
 3318SOL    HW1 9773   3.770   1.715   0.900
 3318SOL    HW2 9774   3.906   1.804   0.893
 3319SOL     OW 9775   4.228   1.568   0.910
 3319SOL    HW1 9776   4.294   1.642   0.919
 3319SOL    HW2 9777   4.272   1.489   0.868
 3320SOL     OW 9778   4.726   0.796   1.238
 3320SOL    HW1 9779   4.767   0.764   1.324
 3320SOL    HW2 9780   4.630   0.769   1.235
 3321SOL     OW 9781   3.764   0.544   1.114
 3321SOL    HW1 9782   3.849   0.511   1.073
 3321SOL    HW2 9783   3.777   0.559   1.212
 3322SOL     OW 9784   3.913   0.520   1.722
 3322SOL    HW1 9785   3.972   0.480   1.652
 3322SOL    HW2 9786   3.855   0.591   1.681
 3323SOL     OW 9787   4.539   0.572   0.325
 3323SOL    HW1 9788   4.546   0.483   0.279
 3323SOL    HW2 9789   4.445   0.606   0.317
 3324SOL     OW 9790   3.976   1.564   1.744
 3324SOL    HW1 9791   3.946   1.621   1.820
 3324SOL    HW2 9792   3.969   1.467   1.770
 3325SOL     OW 9793   4.395   0.464   1.269
 3325SOL    HW1 9794   4.361   0.375   1.239
 3325SOL    HW2 9795   4.421   0.518   1.189
 3326SOL     OW 9796   4.654   1.678   1.465
 3326SOL    HW1 9797   4.630   1.660   1.370
 3326SOL    HW2 9798   4.684   1.772   1.475
 3327SOL     OW 9799   4.197   0.500   0.191
 3327SOL    HW1 9800   4.258   0.580   0.195
 3327SOL    HW2 9801   4.102   0.531   0.198
 3328SOL     OW 9802   3.883   1.137   1.466
 3328SOL    HW1 9803   3.905   1.076   1.542
 3328SOL    HW2 9804   3.893   1.088   1.380
 3329SOL     OW 9805   5.071   1.059   1.234
 3329SOL    HW1 9806   5.095   0.996   1.160
 3329SOL    HW2 9807   4.981   1.099   1.216
 3330SOL     OW 9808   4.976   1.731   1.128
 3330SOL    HW1 9809   5.060   1.736   1.074
 3330SOL    HW2 9810   4.953   1.635   1.146
 3331SOL     OW 9811   3.807   1.258   1.022
 3331SOL    HW1 9812   3.802   1.257   1.122
 3331SOL    HW2 9813   3.724   1.217   0.984
 3332SOL     OW 9814   4.412   1.662   1.716
 3332SOL    HW1 9815   4.356   1.743   1.725
 3332SOL    HW2 9816   4.464   1.666   1.630
 3333SOL     OW 9817   4.627   0.086   0.133
 3333SOL    HW1 9818   4.678   0.087   0.047
 3333SOL    HW2 9819   4.683   0.044   0.204
 3334SOL     OW 9820   5.112   1.573   0.477
 3334SOL    HW1 9821   5.179   1.585   0.403
 3334SOL    HW2 9822   5.072   1.662   0.500
 3335SOL     OW 9823   3.854   1.794   1.851
 3335SOL    HW1 9824   3.813   1.720   1.904
 3335SOL    HW2 9825   3.918   1.845   1.909
 3336SOL     OW 9826   5.004   0.927   0.672
 3336SOL    HW1 9827   5.064   0.846   0.674
 3336SOL    HW2 9828   5.044   0.996   0.612
 3337SOL     OW 9829   4.554   1.273   1.422
 3337SOL    HW1 9830   4.549   1.306   1.517
 3337SOL    HW2 9831   4.468   1.292   1.376
 3338SOL     OW 9832   4.396   1.616   0.154
 3338SOL    HW1 9833   4.405   1.626   0.055
 3338SOL    HW2 9834   4.356   1.527   0.175
 3339SOL     OW 9835   3.987   0.326   0.720
 3339SOL    HW1 9836   3.908   0.377   0.686
 3339SOL    HW2 9837   3.978   0.311   0.818
 3340SOL     OW 9838   4.918   1.612   0.031
 3340SOL    HW1 9839   4.924   1.519   0.068
 3340SOL    HW2 9840   4.859   1.612  -0.049
 3341SOL     OW 9841   4.546   1.002   1.372
 3341SOL    HW1 9842   4.586   1.001   1.280
 3341SOL    HW2 9843   4.556   1.094   1.412
 3342SOL     OW 9844   4.640   0.910   0.291
 3342SOL    HW1 9845   4.703   0.948   0.223
 3342SOL    HW2 9846   4.680   0.827   0.330
 3343SOL     OW 9847   4.096   1.288   1.490
 3343SOL    HW1 9848   4.083   1.381   1.456
 3343SOL    HW2 9849   4.012   1.236   1.477
 3344SOL     OW 9850   4.763   1.098   0.696
 3344SOL    HW1 9851   4.693   1.051   0.750
 3344SOL    HW2 9852   4.822   1.030   0.653
 3345SOL     OW 9853   4.738   0.236   0.971
 3345SOL    HW1 9854   4.730   0.200   0.878
 3345SOL    HW2 9855   4.736   0.160   1.036
 3346SOL     OW 9856   4.314   1.487   0.491
 3346SOL    HW1 9857   4.356   1.429   0.421
 3346SOL    HW2 9858   4.270   1.566   0.447
 3347SOL     OW 9859   3.979   1.348   0.290
 3347SOL    HW1 9860   3.883   1.349   0.263
 3347SOL    HW2 9861   3.991   1.401   0.374
 3348SOL     OW 9862   3.829   1.013   1.726
 3348SOL    HW1 9863   3.752   0.980   1.780
 3348SOL    HW2 9864   3.914   0.983   1.768
 3349SOL     OW 9865   4.396   0.203   1.489
 3349SOL    HW1 9866   4.486   0.187   1.449
 3349SOL    HW2 9867   4.404   0.208   1.588
 3350SOL     OW 9868   5.164   0.856   1.398
 3350SOL    HW1 9869   5.107   0.908   1.335
 3350SOL    HW2 9870   5.260   0.868   1.374
 3351SOL     OW 9871   3.796   0.166   0.318
 3351SOL    HW1 9872   3.779   0.249   0.264
 3351SOL    HW2 9873   3.886   0.129   0.296
 3352SOL     OW 9874   4.337   0.842   1.431
 3352SOL    HW1 9875   4.393   0.923   1.414
 3352SOL    HW2 9876   4.396   0.762   1.434
 3353SOL     OW 9877   4.440   0.565   1.708
 3353SOL    HW1 9878   4.459   0.630   1.782
 3353SOL    HW2 9879   4.500   0.485   1.717
 3354SOL     OW 9880   4.114   1.741   1.560
 3354SOL    HW1 9881   4.023   1.782   1.558
 3354SOL    HW2 9882   4.107   1.647   1.592
 3355SOL     OW 9883   4.949   0.325   0.449
 3355SOL    HW1 9884   5.014   0.251   0.438
 3355SOL    HW2 9885   4.969   0.375   0.533
 3356SOL     OW 9886   4.318   0.745   0.652
 3356SOL    HW1 9887   4.368   0.830   0.633
 3356SOL    HW2 9888   4.230   0.747   0.604
 3357SOL     OW 9889   4.583   1.374   0.016
 3357SOL    HW1 9890   4.537   1.389   0.104
 3357SOL    HW2 9891   4.627   1.459  -0.014
 3358SOL     OW 9892   4.385   1.790   0.953
 3358SOL    HW1 9893   4.339   1.878   0.940
 3358SOL    HW2 9894   4.484   1.802   0.946
 3359SOL     OW 9895   4.583   0.956   0.861
 3359SOL    HW1 9896   4.637   0.887   0.909
 3359SOL    HW2 9897   4.551   1.025   0.927
 3360SOL     OW 9898   4.807   0.984   0.087
 3360SOL    HW1 9899   4.784   1.037   0.005
 3360SOL    HW2 9900   4.888   0.928   0.068
 3361SOL     OW 9901   3.945   1.314   1.844
 3361SOL    HW1 9902   3.880   1.241   1.823
 3361SOL    HW2 9903   3.949   1.328   1.942
 3362SOL     OW 9904   3.803   1.240   0.653
 3362SOL    HW1 9905   3.802   1.193   0.741
 3362SOL    HW2 9906   3.885   1.212   0.602
 3363SOL     OW 9907   4.396   1.391   1.624
 3363SOL    HW1 9908   4.318   1.341   1.662
 3363SOL    HW2 9909   4.393   1.486   1.655
 3364SOL     OW 9910   4.152   0.424   0.520
 3364SOL    HW1 9911   4.182   0.352   0.458
 3364SOL    HW2 9912   4.113   0.384   0.603
 3365SOL     OW 9913   4.041   0.547   1.280
 3365SOL    HW1 9914   4.079   0.488   1.352
 3365SOL    HW2 9915   4.081   0.521   1.192
 3366SOL     OW 9916   4.536   1.586   0.687
 3366SOL    HW1 9917   4.568   1.596   0.593
 3366SOL    HW2 9918   4.457   1.524   0.689
 3367SOL     OW 9919   4.725   0.034   1.154
 3367SOL    HW1 9920   4.662  -0.038   1.123
 3367SOL    HW2 9921   4.818  -0.002   1.154
 3368SOL     OW 9922   4.494   1.330   0.301
 3368SOL    HW1 9923   4.448   1.243   0.318
 3368SOL    HW2 9924   4.585   1.327   0.342
 3369SOL     OW 9925   4.342   1.567   1.284
 3369SOL    HW1 9926   4.337   1.649   1.341
 3369SOL    HW2 9927   4.431   1.564   1.239
 3370SOL     OW 9928   3.763   1.077   0.300
 3370SOL    HW1 9929   3.862   1.066   0.291
 3370SOL    HW2 9930   3.723   0.991   0.332
 3371SOL     OW 9931   4.599   1.646   0.337
 3371SOL    HW1 9932   4.522   1.611   0.283
 3371SOL    HW2 9933   4.567   1.717   0.399
 3372SOL     OW 9934   3.954   0.628   1.975
 3372SOL    HW1 9935   3.861   0.626   2.012
 3372SOL    HW2 9936   3.955   0.589   1.883
 3373SOL     OW 9937   3.949   0.275   2.858
 3373SOL    HW1 9938   3.984   0.258   2.950
 3373SOL    HW2 9939   3.861   0.230   2.846
 3374SOL     OW 9940   3.743   0.368   2.509
 3374SOL    HW1 9941   3.661   0.411   2.548
 3374SOL    HW2 9942   3.715   0.295   2.446
 3375SOL     OW 9943   4.293   1.275   3.027
 3375SOL    HW1 9944   4.200   1.268   2.990
 3375SOL    HW2 9945   4.304   1.364   3.071
 3376SOL     OW 9946   4.859   0.703   2.579
 3376SOL    HW1 9947   4.916   0.781   2.554
 3376SOL    HW2 9948   4.799   0.729   2.655
 3377SOL     OW 9949   4.492   1.144   2.885
 3377SOL    HW1 9950   4.414   1.161   2.945
 3377SOL    HW2 9951   4.526   1.231   2.849
 3378SOL     OW 9952   4.574   0.798   3.685
 3378SOL    HW1 9953   4.570   0.874   3.750
 3378SOL    HW2 9954   4.596   0.834   3.594
 3379SOL     OW 9955   4.409   1.012   2.527
 3379SOL    HW1 9956   4.478   0.996   2.597
 3379SOL    HW2 9957   4.336   1.069   2.565
 3380SOL     OW 9958   4.410   1.161   3.665
 3380SOL    HW1 9959   4.470   1.240   3.679
 3380SOL    HW2 9960   4.324   1.192   3.624
 3381SOL     OW 9961   4.059   1.435   2.923
 3381SOL    HW1 9962   3.981   1.404   2.870
 3381SOL    HW2 9963   4.117   1.493   2.866
 3382SOL     OW 9964   4.162   0.392   3.361
 3382SOL    HW1 9965   4.244   0.336   3.370
 3382SOL    HW2 9966   4.081   0.334   3.365
 3383SOL     OW 9967   3.955   1.713   2.345
 3383SOL    HW1 9968   3.989   1.790   2.399
 3383SOL    HW2 9969   3.999   1.713   2.255
 3384SOL     OW 9970   4.851   1.341   3.552
 3384SOL    HW1 9971   4.898   1.341   3.640
 3384SOL    HW2 9972   4.803   1.254   3.541
 3385SOL     OW 9973   3.954   1.434   2.400
 3385SOL    HW1 9974   3.928   1.530   2.400
 3385SOL    HW2 9975   3.883   1.380   2.445
 3386SOL     OW 9976   3.964   1.091   2.748
 3386SOL    HW1 9977   3.978   1.007   2.800
 3386SOL    HW2 9978   3.909   1.155   2.803
 3387SOL     OW 9979   4.344   1.786   3.301
 3387SOL    HW1 9980   4.252   1.769   3.336
 3387SOL    HW2 9981   4.372   1.878   3.327
 3388SOL     OW 9982   4.330   0.964   1.985
 3388SOL    HW1 9983   4.337   1.048   1.931
 3388SOL    HW2 9984   4.376   0.977   2.073
 3389SOL     OW 9985   3.846   0.643   2.425
 3389SOL    HW1 9986   3.801   0.555   2.442
 3389SOL    HW2 9987   3.845   0.697   2.509
 3390SOL     OW 9988   3.751   1.596   1.979
 3390SOL    HW1 9989   3.732   1.500   2.000
 3390SOL    HW2 9990   3.718   1.654   2.054
 3391SOL     OW 9991   3.837   0.737   3.459
 3391SOL    HW1 9992   3.925   0.724   3.504
 3391SOL    HW2 9993   3.824   0.834   3.437
 3392SOL     OW 9994   4.337   1.365   2.588
 3392SOL    HW1 9995   4.288   1.278   2.597
 3392SOL    HW2 9996   4.314   1.408   2.501
 3393SOL     OW 9997   5.017   1.228   3.285
 3393SOL    HW1 9998   5.054   1.155   3.227
 3393SOL    HW2 9999   5.069   1.233   3.370
 3394SOL     OW10000   4.533   0.004   2.364
 3394SOL    HW110001   4.573   0.095   2.355
 3394SOL    HW210002   4.433   0.012   2.370
 3395SOL     OW10003   3.921   0.976   3.126
 3395SOL    HW110004   4.010   0.931   3.112
 3395SOL    HW210005   3.848   0.911   3.107
 3396SOL     OW10006   4.911   1.792   3.478
 3396SOL    HW110007   4.935   1.852   3.402
 3396SOL    HW210008   4.918   1.697   3.448
 3397SOL     OW10009   4.041   0.251   3.663
 3397SOL    HW110010   4.112   0.322   3.669
 3397SOL    HW210011   3.953   0.290   3.691
 3398SOL     OW10012   4.322   0.729   2.132
 3398SOL    HW110013   4.346   0.798   2.064
 3398SOL    HW210014   4.244   0.762   2.186
 3399SOL     OW10015   5.005   0.345   2.806
 3399SOL    HW110016   4.919   0.295   2.793
 3399SOL    HW210017   5.067   0.291   2.862
 3400SOL     OW10018   4.531   0.605   3.327
 3400SOL    HW110019   4.484   0.602   3.416
 3400SOL    HW210020   4.480   0.550   3.261
 3401SOL     OW10021   4.697   0.890   3.434
 3401SOL    HW110022   4.743   0.806   3.405
 3401SOL    HW210023   4.641   0.924   3.359
 3402SOL     OW10024   4.715   0.410   3.104
 3402SOL    HW110025   4.638   0.444   3.158
 3402SOL    HW210026   4.681   0.359   3.025
 3403SOL     OW10027   4.765   0.701   2.291
 3403SOL    HW110028   4.791   0.697   2.387
 3403SOL    HW210029   4.680   0.650   2.277
 3404SOL     OW10030   3.800   0.811   2.651
 3404SOL    HW110031   3.899   0.799   2.660
 3404SOL    HW210032   3.776   0.906   2.672
 3405SOL     OW10033   3.854   1.821   3.433
 3405SOL    HW110034   3.844   1.806   3.532
 3405SOL    HW210035   3.768   1.857   3.397
 3406SOL     OW10036   4.589   0.348   2.057
 3406SOL    HW110037   4.648   0.411   2.008
 3406SOL    HW210038   4.608   0.254   2.028
 3407SOL     OW10039   4.274   0.196   2.747
 3407SOL    HW110040   4.269   0.191   2.847
 3407SOL    HW210041   4.276   0.292   2.718
 3408SOL     OW10042   4.732   1.456   2.339
 3408SOL    HW110043   4.686   1.528   2.287
 3408SOL    HW210044   4.728   1.476   2.437
 3409SOL     OW10045   4.075   1.801   2.715
 3409SOL    HW110046   4.125   1.715   2.721
 3409SOL    HW210047   4.140   1.878   2.712
 3410SOL     OW10048   4.951   1.550   3.368
 3410SOL    HW110049   4.957   1.473   3.432
 3410SOL    HW210050   4.899   1.524   3.288
 3411SOL     OW10051   4.045   0.943   2.104
 3411SOL    HW110052   4.127   0.982   2.062
 3411SOL    HW210053   4.018   0.861   2.055
 3412SOL     OW10054   4.185   1.266   3.589
 3412SOL    HW110055   4.135   1.267   3.503
 3412SOL    HW210056   4.122   1.248   3.665
 3413SOL     OW10057   4.835   1.776   2.099
 3413SOL    HW110058   4.775   1.714   2.149
 3413SOL    HW210059   4.866   1.732   2.014
 3414SOL     OW10060   3.926   0.285   3.360
 3414SOL    HW110061   3.846   0.345   3.347
 3414SOL    HW210062   3.916   0.236   3.446
 3415SOL     OW10063   4.188   1.743   2.185
 3415SOL    HW110064   4.221   1.782   2.271
 3415SOL    HW210065   4.264   1.736   2.120
 3416SOL     OW10066   3.973   1.785   3.103
 3416SOL    HW110067   4.030   1.720   3.153
 3416SOL    HW210068   3.957   1.752   3.010
 3417SOL     OW10069   4.664   1.698   2.766
 3417SOL    HW110070   4.744   1.641   2.787
 3417SOL    HW210071   4.615   1.658   2.689
 3418SOL     OW10072   4.106   0.700   2.342
 3418SOL    HW110073   4.151   0.610   2.339
 3418SOL    HW210074   4.012   0.689   2.375
 3419SOL     OW10075   4.338   0.122   1.979
 3419SOL    HW110076   4.436   0.100   1.986
 3419SOL    HW210077   4.307   0.105   1.886
 3420SOL     OW10078   4.505   0.264   3.611
 3420SOL    HW110079   4.572   0.203   3.654
 3420SOL    HW210080   4.432   0.283   3.676
 3421SOL     OW10081   4.612   1.514   3.057
 3421SOL    HW110082   4.589   1.489   2.963
 3421SOL    HW210083   4.673   1.445   3.096
 3422SOL     OW10084   4.527   1.402   2.786
 3422SOL    HW110085   4.617   1.416   2.744
 3422SOL    HW210086   4.456   1.404   2.715
 3423SOL     OW10087   4.646   0.503   2.761
 3423SOL    HW110088   4.621   0.494   2.665
 3423SOL    HW210089   4.694   0.421   2.792
 3424SOL     OW10090   4.263   0.064   2.374
 3424SOL    HW110091   4.182   0.065   2.432
 3424SOL    HW210092   4.266   0.147   2.319
 3425SOL     OW10093   4.021   0.035   2.033
 3425SOL    HW110094   4.070   0.119   2.012
 3425SOL    HW210095   4.083  -0.030   2.078
 3426SOL     OW10096   4.659   0.236   2.342
 3426SOL    HW110097   4.611   0.277   2.264
 3426SOL    HW210098   4.758   0.234   2.323
 3427SOL     OW10099   4.800   0.683   3.326
 3427SOL    HW110100   4.720   0.622   3.329
 3427SOL    HW210101   4.881   0.630   3.302
 3428SOL     OW10102   4.951   1.570   2.655
 3428SOL    HW110103   4.972   1.644   2.590
 3428SOL    HW210104   5.019   1.570   2.728
 3429SOL     OW10105   4.183   1.152   2.603
 3429SOL    HW110106   4.112   1.125   2.668
 3429SOL    HW210107   4.157   1.124   2.510
 3430SOL     OW10108   4.995   1.797   2.453
 3430SOL    HW110109   5.039   1.861   2.389
 3430SOL    HW210110   4.945   1.849   2.523
 3431SOL     OW10111   4.756   0.549   1.878
 3431SOL    HW110112   4.715   0.631   1.839
 3431SOL    HW210113   4.820   0.575   1.951
 3432SOL     OW10114   3.802   0.556   3.248
 3432SOL    HW110115   3.894   0.555   3.207
 3432SOL    HW210116   3.796   0.630   3.315
 3433SOL     OW10117   4.285   0.222   3.009
 3433SOL    HW110118   4.323   0.138   3.046
 3433SOL    HW210119   4.197   0.241   3.053
 3434SOL     OW10120   4.590   0.454   2.504
 3434SOL    HW110121   4.558   0.526   2.442
 3434SOL    HW210122   4.614   0.373   2.451
 3435SOL     OW10123   4.741   0.039   2.615
 3435SOL    HW110124   4.669   0.044   2.546
 3435SOL    HW210125   4.717  -0.030   2.684
 3436SOL     OW10126   4.212   1.385   2.036
 3436SOL    HW110127   4.125   1.370   2.083
 3436SOL    HW210128   4.195   1.411   1.941
 3437SOL     OW10129   5.388   1.280   2.519
 3437SOL    HW110130   5.487   1.288   2.533
 3437SOL    HW210131   5.343   1.364   2.550
 3438SOL     OW10132   4.251   0.256   2.190
 3438SOL    HW110133   4.278   0.197   2.115
 3438SOL    HW210134   4.251   0.351   2.159
 3439SOL     OW10135   4.788   1.347   3.202
 3439SOL    HW110136   4.708   1.324   3.257
 3439SOL    HW210137   4.871   1.321   3.251
 3440SOL     OW10138   4.835   1.195   2.962
 3440SOL    HW110139   4.795   1.239   3.043
 3440SOL    HW210140   4.794   1.232   2.879
 3441SOL     OW10141   4.639   0.089   3.264
 3441SOL    HW110142   4.664   0.069   3.169
 3441SOL    HW210143   4.711   0.145   3.306
 3442SOL     OW10144   4.704   1.116   3.581
 3442SOL    HW110145   4.605   1.122   3.591
 3442SOL    HW210146   4.727   1.036   3.525
 3443SOL     OW10147   4.429   1.050   2.230
 3443SOL    HW110148   4.415   1.057   2.329
 3443SOL    HW210149   4.513   0.999   2.212
 3444SOL     OW10150   4.134   0.813   3.113
 3444SOL    HW110151   4.220   0.825   3.163
 3444SOL    HW210152   4.092   0.726   3.140
 3445SOL     OW10153   4.998   0.386   3.124
 3445SOL    HW110154   5.019   0.460   3.188
 3445SOL    HW210155   4.909   0.403   3.081
 3446SOL     OW10156   3.788   1.564   3.193
 3446SOL    HW110157   3.742   1.646   3.159
 3446SOL    HW210158   3.886   1.583   3.202
 3447SOL     OW10159   4.091   1.100   2.363
 3447SOL    HW110160   4.084   1.183   2.307
 3447SOL    HW210161   4.095   1.020   2.303
 3448SOL     OW10162   4.290   0.537   2.727
 3448SOL    HW110163   4.302   0.603   2.653
 3448SOL    HW210164   4.336   0.571   2.810
 3449SOL     OW10165   4.976   1.348   2.250
 3449SOL    HW110166   5.026   1.425   2.290
 3449SOL    HW210167   4.881   1.350   2.282
 3450SOL     OW10168   4.078   1.510   3.191
 3450SOL    HW110169   4.057   1.466   3.104
 3450SOL    HW210170   4.175   1.536   3.194
 3451SOL     OW10171   4.126   0.751   3.460
 3451SOL    HW110172   4.194   0.806   3.413
 3451SOL    HW210173   4.166   0.663   3.487
 3452SOL     OW10174   4.737   0.105   3.632
 3452SOL    HW110175   4.743   0.190   3.580
 3452SOL    HW210176   4.769   0.029   3.575
 3453SOL     OW10177   4.228   0.050   3.602
 3453SOL    HW110178   4.186  -0.007   3.532
 3453SOL    HW210179   4.162   0.119   3.634
 3454SOL     OW10180   4.297   0.870   2.891
 3454SOL    HW110181   4.341   0.959   2.882
 3454SOL    HW210182   4.234   0.870   2.968
 3455SOL     OW10183   5.084   0.862   2.907
 3455SOL    HW110184   5.009   0.862   2.841
 3455SOL    HW210185   5.121   0.770   2.916
 3456SOL     OW10186   4.933   0.525   2.137
 3456SOL    HW110187   4.946   0.441   2.191
 3456SOL    HW210188   4.904   0.599   2.197
 3457SOL     OW10189   4.031   0.213   3.093
 3457SOL    HW110190   4.008   0.250   3.183
 3457SOL    HW210191   4.001   0.118   3.087
 3458SOL     OW10192   3.761   1.310   3.144
 3458SOL    HW110193   3.814   1.261   3.212
 3458SOL    HW210194   3.783   1.408   3.149
 3459SOL     OW10195   4.456   0.634   2.926
 3459SOL    HW110196   4.515   0.608   2.850
 3459SOL    HW210197   4.428   0.730   2.915
 3460SOL     OW10198   4.031   0.063   2.480
 3460SOL    HW110199   4.020   0.157   2.513
 3460SOL    HW210200   4.026   0.000   2.557
 3461SOL     OW10201   5.346   0.367   2.236
 3461SOL    HW110202   5.348   0.291   2.300
 3461SOL    HW210203   5.298   0.444   2.276
 3462SOL     OW10204   4.747   0.766   2.828
 3462SOL    HW110205   4.762   0.787   2.924
 3462SOL    HW210206   4.717   0.671   2.819
 3463SOL     OW10207   4.704   1.573   3.562
 3463SOL    HW110208   4.684   1.617   3.474
 3463SOL    HW210209   4.743   1.482   3.546
 3464SOL     OW10210   4.074   0.898   3.666
 3464SOL    HW110211   4.150   0.942   3.714
 3464SOL    HW210212   4.109   0.851   3.584
 3465SOL     OW10213   5.027   0.838   1.904
 3465SOL    HW110214   5.061   0.745   1.919
 3465SOL    HW210215   5.045   0.865   1.809
 3466SOL     OW10216   4.792   1.333   2.711
 3466SOL    HW110217   4.799   1.249   2.656
 3466SOL    HW210218   4.854   1.402   2.675
 3467SOL     OW10219   4.043   0.810   2.811
 3467SOL    HW110220   4.136   0.846   2.816
 3467SOL    HW210221   4.037   0.725   2.863
 3468SOL     OW10222   4.063   0.509   2.868
 3468SOL    HW110223   4.011   0.426   2.851
 3468SOL    HW210224   4.140   0.514   2.804
 3469SOL     OW10225   4.862   0.380   3.540
 3469SOL    HW110226   4.817   0.443   3.604
 3469SOL    HW210227   4.955   0.411   3.523
 3470SOL     OW10228   4.884   0.207   3.339
 3470SOL    HW110229   4.884   0.271   3.416
 3470SOL    HW210230   4.912   0.255   3.256
 3471SOL     OW10231   3.732   1.326   2.062
 3471SOL    HW110232   3.639   1.347   2.031
 3471SOL    HW210233   3.742   1.227   2.075
 3472SOL     OW10234   3.812   1.801   2.789
 3472SOL    HW110235   3.770   1.715   2.762
 3472SOL    HW210236   3.906   1.804   2.755
 3473SOL     OW10237   4.228   1.568   2.772
 3473SOL    HW110238   4.294   1.642   2.781
 3473SOL    HW210239   4.272   1.489   2.730
 3474SOL     OW10240   4.726   0.796   3.100
 3474SOL    HW110241   4.767   0.764   3.186
 3474SOL    HW210242   4.630   0.769   3.097
 3475SOL     OW10243   3.764   0.544   2.976
 3475SOL    HW110244   3.849   0.511   2.935
 3475SOL    HW210245   3.777   0.559   3.074
 3476SOL     OW10246   3.913   0.520   3.584
 3476SOL    HW110247   3.972   0.480   3.514
 3476SOL    HW210248   3.855   0.591   3.543
 3477SOL     OW10249   4.539   0.572   2.187
 3477SOL    HW110250   4.546   0.483   2.141
 3477SOL    HW210251   4.445   0.606   2.179
 3478SOL     OW10252   3.976   1.564   3.606
 3478SOL    HW110253   3.946   1.621   3.682
 3478SOL    HW210254   3.969   1.467   3.632
 3479SOL     OW10255   4.395   0.464   3.131
 3479SOL    HW110256   4.361   0.375   3.101
 3479SOL    HW210257   4.421   0.518   3.051
 3480SOL     OW10258   4.654   1.678   3.327
 3480SOL    HW110259   4.630   1.660   3.232
 3480SOL    HW210260   4.684   1.772   3.337
 3481SOL     OW10261   4.197   0.500   2.053
 3481SOL    HW110262   4.258   0.580   2.057
 3481SOL    HW210263   4.102   0.531   2.060
 3482SOL     OW10264   3.883   1.137   3.328
 3482SOL    HW110265   3.905   1.076   3.404
 3482SOL    HW210266   3.893   1.088   3.242
 3483SOL     OW10267   5.071   1.059   3.096
 3483SOL    HW110268   5.095   0.996   3.022
 3483SOL    HW210269   4.981   1.099   3.078
 3484SOL     OW10270   4.976   1.731   2.990
 3484SOL    HW110271   5.060   1.736   2.936
 3484SOL    HW210272   4.953   1.635   3.008
 3485SOL     OW10273   3.807   1.258   2.884
 3485SOL    HW110274   3.802   1.257   2.984
 3485SOL    HW210275   3.724   1.217   2.846
 3486SOL     OW10276   4.412   1.662   3.578
 3486SOL    HW110277   4.356   1.743   3.587
 3486SOL    HW210278   4.464   1.666   3.492
 3487SOL     OW10279   5.112   1.573   2.339
 3487SOL    HW110280   5.179   1.585   2.265
 3487SOL    HW210281   5.072   1.662   2.362
 3488SOL     OW10282   3.854   1.794   3.713
 3488SOL    HW110283   3.813   1.720   3.766
 3488SOL    HW210284   3.918   1.845   3.771
 3489SOL     OW10285   5.004   0.927   2.534
 3489SOL    HW110286   5.064   0.846   2.536
 3489SOL    HW210287   5.044   0.996   2.474
 3490SOL     OW10288   4.554   1.273   3.284
 3490SOL    HW110289   4.549   1.306   3.379
 3490SOL    HW210290   4.468   1.292   3.238
 3491SOL     OW10291   4.396   1.616   2.016
 3491SOL    HW110292   4.405   1.626   1.917
 3491SOL    HW210293   4.356   1.527   2.037
 3492SOL     OW10294   3.987   0.326   2.582
 3492SOL    HW110295   3.908   0.377   2.548
 3492SOL    HW210296   3.978   0.311   2.680
 3493SOL     OW10297   4.918   1.612   1.893
 3493SOL    HW110298   4.924   1.519   1.930
 3493SOL    HW210299   4.859   1.612   1.813
 3494SOL     OW10300   4.546   1.002   3.234
 3494SOL    HW110301   4.586   1.001   3.142
 3494SOL    HW210302   4.556   1.094   3.274
 3495SOL     OW10303   4.640   0.910   2.153
 3495SOL    HW110304   4.703   0.948   2.085
 3495SOL    HW210305   4.680   0.827   2.192
 3496SOL     OW10306   4.096   1.288   3.352
 3496SOL    HW110307   4.083   1.381   3.318
 3496SOL    HW210308   4.012   1.236   3.339
 3497SOL     OW10309   4.763   1.098   2.558
 3497SOL    HW110310   4.693   1.051   2.612
 3497SOL    HW210311   4.822   1.030   2.515
 3498SOL     OW10312   4.738   0.236   2.833
 3498SOL    HW110313   4.730   0.200   2.740
 3498SOL    HW210314   4.736   0.160   2.898
 3499SOL     OW10315   4.314   1.487   2.353
 3499SOL    HW110316   4.356   1.429   2.283
 3499SOL    HW210317   4.270   1.566   2.309
 3500SOL     OW10318   3.979   1.348   2.152
 3500SOL    HW110319   3.883   1.349   2.125
 3500SOL    HW210320   3.991   1.401   2.236
 3501SOL     OW10321   3.829   1.013   3.588
 3501SOL    HW110322   3.752   0.980   3.642
 3501SOL    HW210323   3.914   0.983   3.630
 3502SOL     OW10324   4.396   0.203   3.351
 3502SOL    HW110325   4.486   0.187   3.311
 3502SOL    HW210326   4.404   0.208   3.450
 3503SOL     OW10327   3.799   0.345   1.895
 3503SOL    HW110328   3.707   0.317   1.866
 3503SOL    HW210329   3.830   0.422   1.839
 3504SOL     OW10330   5.164   0.856   3.260
 3504SOL    HW110331   5.107   0.908   3.197
 3504SOL    HW210332   5.260   0.868   3.236
 3505SOL     OW10333   3.796   0.166   2.180
 3505SOL    HW110334   3.779   0.249   2.126
 3505SOL    HW210335   3.886   0.129   2.158
 3506SOL     OW10336   4.337   0.842   3.293
 3506SOL    HW110337   4.393   0.923   3.276
 3506SOL    HW210338   4.396   0.762   3.296
 3507SOL     OW10339   4.440   0.565   3.570
 3507SOL    HW110340   4.459   0.630   3.644
 3507SOL    HW210341   4.500   0.485   3.579
 3508SOL     OW10342   4.114   1.741   3.422
 3508SOL    HW110343   4.023   1.782   3.420
 3508SOL    HW210344   4.107   1.647   3.454
 3509SOL     OW10345   4.949   0.325   2.311
 3509SOL    HW110346   5.014   0.251   2.300
 3509SOL    HW210347   4.969   0.375   2.395
 3510SOL     OW10348   4.318   0.745   2.514
 3510SOL    HW110349   4.368   0.830   2.495
 3510SOL    HW210350   4.230   0.747   2.466
 3511SOL     OW10351   4.583   1.374   1.878
 3511SOL    HW110352   4.537   1.389   1.966
 3511SOL    HW210353   4.627   1.459   1.848
 3512SOL     OW10354   4.385   1.790   2.815
 3512SOL    HW110355   4.339   1.878   2.802
 3512SOL    HW210356   4.484   1.802   2.808
 3513SOL     OW10357   4.583   0.956   2.723
 3513SOL    HW110358   4.637   0.887   2.771
 3513SOL    HW210359   4.551   1.025   2.789
 3514SOL     OW10360   4.807   0.984   1.949
 3514SOL    HW110361   4.784   1.037   1.867
 3514SOL    HW210362   4.888   0.928   1.930
 3515SOL     OW10363   3.945   1.314   3.706
 3515SOL    HW110364   3.880   1.241   3.685
 3515SOL    HW210365   3.949   1.328   3.804
 3516SOL     OW10366   3.803   1.240   2.515
 3516SOL    HW110367   3.802   1.193   2.603
 3516SOL    HW210368   3.885   1.212   2.464
 3517SOL     OW10369   4.396   1.391   3.486
 3517SOL    HW110370   4.318   1.341   3.524
 3517SOL    HW210371   4.393   1.486   3.517
 3518SOL     OW10372   4.152   0.424   2.382
 3518SOL    HW110373   4.182   0.352   2.320
 3518SOL    HW210374   4.113   0.384   2.465
 3519SOL     OW10375   4.041   0.547   3.142
 3519SOL    HW110376   4.079   0.488   3.214
 3519SOL    HW210377   4.081   0.521   3.054
 3520SOL     OW10378   4.536   1.586   2.549
 3520SOL    HW110379   4.568   1.596   2.455
 3520SOL    HW210380   4.457   1.524   2.551
 3521SOL     OW10381   4.725   0.034   3.016
 3521SOL    HW110382   4.662  -0.038   2.985
 3521SOL    HW210383   4.818  -0.002   3.016
 3522SOL     OW10384   4.494   1.330   2.163
 3522SOL    HW110385   4.448   1.243   2.180
 3522SOL    HW210386   4.585   1.327   2.204
 3523SOL     OW10387   4.342   1.567   3.146
 3523SOL    HW110388   4.337   1.649   3.203
 3523SOL    HW210389   4.431   1.564   3.101
 3524SOL     OW10390   3.763   1.077   2.162
 3524SOL    HW110391   3.862   1.066   2.153
 3524SOL    HW210392   3.723   0.991   2.194
 3525SOL     OW10393   4.599   1.646   2.199
 3525SOL    HW110394   4.522   1.611   2.145
 3525SOL    HW210395   4.567   1.717   2.261
 3526SOL     OW10396   3.954   0.628   3.837
 3526SOL    HW110397   3.861   0.626   3.874
 3526SOL    HW210398   3.955   0.589   3.745
 3527SOL     OW10399   3.949   0.275   4.720
 3527SOL    HW110400   3.984   0.258   4.812
 3527SOL    HW210401   3.861   0.230   4.708
 3528SOL     OW10402   3.743   0.368   4.371
 3528SOL    HW110403   3.661   0.411   4.410
 3528SOL    HW210404   3.715   0.295   4.308
 3529SOL     OW10405   4.293   1.275   4.889
 3529SOL    HW110406   4.200   1.268   4.852
 3529SOL    HW210407   4.304   1.364   4.933
 3530SOL     OW10408   4.859   0.703   4.441
 3530SOL    HW110409   4.916   0.781   4.416
 3530SOL    HW210410   4.799   0.729   4.517
 3531SOL     OW10411   4.492   1.144   4.747
 3531SOL    HW110412   4.414   1.161   4.807
 3531SOL    HW210413   4.526   1.231   4.711
 3532SOL     OW10414   4.409   1.012   4.389
 3532SOL    HW110415   4.478   0.996   4.459
 3532SOL    HW210416   4.336   1.069   4.427
 3533SOL     OW10417   4.059   1.435   4.785
 3533SOL    HW110418   3.981   1.404   4.732
 3533SOL    HW210419   4.117   1.493   4.728
 3534SOL     OW10420   3.955   1.713   4.207
 3534SOL    HW110421   3.989   1.790   4.261
 3534SOL    HW210422   3.999   1.713   4.117
 3535SOL     OW10423   3.954   1.434   4.262
 3535SOL    HW110424   3.928   1.530   4.262
 3535SOL    HW210425   3.883   1.380   4.307
 3536SOL     OW10426   3.964   1.091   4.610
 3536SOL    HW110427   3.978   1.007   4.662
 3536SOL    HW210428   3.909   1.155   4.665
 3537SOL     OW10429   4.344   1.786   5.163
 3537SOL    HW110430   4.252   1.769   5.198
 3537SOL    HW210431   4.372   1.878   5.189
 3538SOL     OW10432   4.330   0.964   3.847
 3538SOL    HW110433   4.337   1.048   3.793
 3538SOL    HW210434   4.376   0.977   3.935
 3539SOL     OW10435   3.846   0.643   4.287
 3539SOL    HW110436   3.801   0.555   4.304
 3539SOL    HW210437   3.845   0.697   4.371
 3540SOL     OW10438   3.751   1.596   3.841
 3540SOL    HW110439   3.732   1.500   3.862
 3540SOL    HW210440   3.718   1.654   3.916
 3541SOL     OW10441   4.337   1.365   4.450
 3541SOL    HW110442   4.288   1.278   4.459
 3541SOL    HW210443   4.314   1.408   4.363
 3542SOL     OW10444   4.533   0.004   4.226
 3542SOL    HW110445   4.573   0.095   4.217
 3542SOL    HW210446   4.433   0.012   4.232
 3543SOL     OW10447   3.921   0.976   4.988
 3543SOL    HW110448   4.010   0.931   4.974
 3543SOL    HW210449   3.848   0.911   4.969
 3544SOL     OW10450   4.322   0.729   3.994
 3544SOL    HW110451   4.346   0.798   3.926
 3544SOL    HW210452   4.244   0.762   4.048
 3545SOL     OW10453   5.005   0.345   4.668
 3545SOL    HW110454   4.919   0.295   4.655
 3545SOL    HW210455   5.067   0.291   4.724
 3546SOL     OW10456   4.715   0.410   4.966
 3546SOL    HW110457   4.638   0.444   5.020
 3546SOL    HW210458   4.681   0.359   4.887
 3547SOL     OW10459   4.765   0.701   4.153
 3547SOL    HW110460   4.791   0.697   4.249
 3547SOL    HW210461   4.680   0.650   4.139
 3548SOL     OW10462   3.800   0.811   4.513
 3548SOL    HW110463   3.899   0.799   4.522
 3548SOL    HW210464   3.776   0.906   4.534
 3549SOL     OW10465   4.589   0.348   3.919
 3549SOL    HW110466   4.648   0.411   3.870
 3549SOL    HW210467   4.608   0.254   3.890
 3550SOL     OW10468   4.274   0.196   4.609
 3550SOL    HW110469   4.269   0.191   4.709
 3550SOL    HW210470   4.276   0.292   4.580
 3551SOL     OW10471   4.732   1.456   4.201
 3551SOL    HW110472   4.686   1.528   4.149
 3551SOL    HW210473   4.728   1.476   4.299
 3552SOL     OW10474   4.075   1.801   4.577
 3552SOL    HW110475   4.125   1.715   4.583
 3552SOL    HW210476   4.140   1.878   4.574
 3553SOL     OW10477   4.045   0.943   3.966
 3553SOL    HW110478   4.127   0.982   3.924
 3553SOL    HW210479   4.018   0.861   3.917
 3554SOL     OW10480   4.835   1.776   3.961
 3554SOL    HW110481   4.775   1.714   4.011
 3554SOL    HW210482   4.866   1.732   3.876
 3555SOL     OW10483   4.188   1.743   4.047
 3555SOL    HW110484   4.221   1.782   4.133
 3555SOL    HW210485   4.264   1.736   3.982
 3556SOL     OW10486   3.973   1.785   4.965
 3556SOL    HW110487   4.030   1.720   5.015
 3556SOL    HW210488   3.957   1.752   4.872
 3557SOL     OW10489   4.664   1.698   4.628
 3557SOL    HW110490   4.744   1.641   4.649
 3557SOL    HW210491   4.615   1.658   4.551
 3558SOL     OW10492   4.106   0.700   4.204
 3558SOL    HW110493   4.151   0.610   4.201
 3558SOL    HW210494   4.012   0.689   4.237
 3559SOL     OW10495   4.338   0.122   3.841
 3559SOL    HW110496   4.436   0.100   3.848
 3559SOL    HW210497   4.307   0.105   3.748
 3560SOL     OW10498   4.527   1.402   4.648
 3560SOL    HW110499   4.617   1.416   4.606
 3560SOL    HW210500   4.456   1.404   4.577
 3561SOL     OW10501   4.646   0.503   4.623
 3561SOL    HW110502   4.621   0.494   4.527
 3561SOL    HW210503   4.694   0.421   4.654
 3562SOL     OW10504   4.263   0.064   4.236
 3562SOL    HW110505   4.182   0.065   4.294
 3562SOL    HW210506   4.266   0.147   4.181
 3563SOL     OW10507   4.021   0.035   3.895
 3563SOL    HW110508   4.070   0.119   3.874
 3563SOL    HW210509   4.083  -0.030   3.940
 3564SOL     OW10510   4.659   0.236   4.204
 3564SOL    HW110511   4.611   0.277   4.126
 3564SOL    HW210512   4.758   0.234   4.185
 3565SOL     OW10513   4.951   1.570   4.517
 3565SOL    HW110514   4.972   1.644   4.452
 3565SOL    HW210515   5.019   1.570   4.590
 3566SOL     OW10516   4.183   1.152   4.465
 3566SOL    HW110517   4.112   1.125   4.530
 3566SOL    HW210518   4.157   1.124   4.372
 3567SOL     OW10519   4.995   1.797   4.315
 3567SOL    HW110520   5.039   1.861   4.251
 3567SOL    HW210521   4.945   1.849   4.385
 3568SOL     OW10522   4.756   0.549   3.740
 3568SOL    HW110523   4.715   0.631   3.701
 3568SOL    HW210524   4.820   0.575   3.813
 3569SOL     OW10525   4.285   0.222   4.871
 3569SOL    HW110526   4.323   0.138   4.908
 3569SOL    HW210527   4.197   0.241   4.915
 3570SOL     OW10528   4.590   0.454   4.366
 3570SOL    HW110529   4.558   0.526   4.304
 3570SOL    HW210530   4.614   0.373   4.313
 3571SOL     OW10531   4.741   0.039   4.477
 3571SOL    HW110532   4.669   0.044   4.408
 3571SOL    HW210533   4.717  -0.030   4.546
 3572SOL     OW10534   4.212   1.385   3.898
 3572SOL    HW110535   4.125   1.370   3.945
 3572SOL    HW210536   4.195   1.411   3.803
 3573SOL     OW10537   5.388   1.280   4.381
 3573SOL    HW110538   5.487   1.288   4.395
 3573SOL    HW210539   5.343   1.364   4.412
 3574SOL     OW10540   4.251   0.256   4.052
 3574SOL    HW110541   4.278   0.197   3.977
 3574SOL    HW210542   4.251   0.351   4.021
 3575SOL     OW10543   5.316   1.629   5.349
 3575SOL    HW110544   5.343   1.663   5.259
 3575SOL    HW210545   5.395   1.591   5.395
 3576SOL     OW10546   4.835   1.195   4.824
 3576SOL    HW110547   4.795   1.239   4.905
 3576SOL    HW210548   4.794   1.232   4.741
 3577SOL     OW10549   4.429   1.050   4.092
 3577SOL    HW110550   4.415   1.057   4.191
 3577SOL    HW210551   4.513   0.999   4.074
 3578SOL     OW10552   4.134   0.813   4.975
 3578SOL    HW110553   4.220   0.825   5.025
 3578SOL    HW210554   4.092   0.726   5.002
 3579SOL     OW10555   4.091   1.100   4.225
 3579SOL    HW110556   4.084   1.183   4.169
 3579SOL    HW210557   4.095   1.020   4.165
 3580SOL     OW10558   4.290   0.537   4.589
 3580SOL    HW110559   4.302   0.603   4.515
 3580SOL    HW210560   4.336   0.571   4.672
 3581SOL     OW10561   4.976   1.348   4.112
 3581SOL    HW110562   5.026   1.425   4.152
 3581SOL    HW210563   4.881   1.350   4.144
 3582SOL     OW10564   4.078   1.510   5.053
 3582SOL    HW110565   4.057   1.466   4.966
 3582SOL    HW210566   4.175   1.536   5.056
 3583SOL     OW10567   4.297   0.870   4.753
 3583SOL    HW110568   4.341   0.959   4.744
 3583SOL    HW210569   4.234   0.870   4.830
 3584SOL     OW10570   5.084   0.862   4.769
 3584SOL    HW110571   5.009   0.862   4.703
 3584SOL    HW210572   5.121   0.770   4.778
 3585SOL     OW10573   4.933   0.525   3.999
 3585SOL    HW110574   4.946   0.441   4.053
 3585SOL    HW210575   4.904   0.599   4.059
 3586SOL     OW10576   4.031   0.213   4.955
 3586SOL    HW110577   4.008   0.250   5.045
 3586SOL    HW210578   4.001   0.118   4.949
 3587SOL     OW10579   3.761   1.310   5.006
 3587SOL    HW110580   3.814   1.261   5.074
 3587SOL    HW210581   3.783   1.408   5.011
 3588SOL     OW10582   4.456   0.634   4.788
 3588SOL    HW110583   4.515   0.608   4.712
 3588SOL    HW210584   4.428   0.730   4.777
 3589SOL     OW10585   4.031   0.063   4.342
 3589SOL    HW110586   4.020   0.157   4.375
 3589SOL    HW210587   4.026   0.000   4.419
 3590SOL     OW10588   5.346   0.367   4.098
 3590SOL    HW110589   5.348   0.291   4.162
 3590SOL    HW210590   5.298   0.444   4.138
 3591SOL     OW10591   4.747   0.766   4.690
 3591SOL    HW110592   4.762   0.787   4.786
 3591SOL    HW210593   4.717   0.671   4.681
 3592SOL     OW10594   5.027   0.838   3.766
 3592SOL    HW110595   5.061   0.745   3.781
 3592SOL    HW210596   5.045   0.865   3.671
 3593SOL     OW10597   4.792   1.333   4.573
 3593SOL    HW110598   4.799   1.249   4.518
 3593SOL    HW210599   4.854   1.402   4.537
 3594SOL     OW10600   4.043   0.810   4.673
 3594SOL    HW110601   4.136   0.846   4.678
 3594SOL    HW210602   4.037   0.725   4.725
 3595SOL     OW10603   4.063   0.509   4.730
 3595SOL    HW110604   4.011   0.426   4.713
 3595SOL    HW210605   4.140   0.514   4.666
 3596SOL     OW10606   4.884   0.207   5.201
 3596SOL    HW110607   4.884   0.271   5.278
 3596SOL    HW210608   4.912   0.255   5.118
 3597SOL     OW10609   3.732   1.326   3.924
 3597SOL    HW110610   3.639   1.347   3.893
 3597SOL    HW210611   3.742   1.227   3.937
 3598SOL     OW10612   3.812   1.801   4.651
 3598SOL    HW110613   3.770   1.715   4.624
 3598SOL    HW210614   3.906   1.804   4.617
 3599SOL     OW10615   4.228   1.568   4.634
 3599SOL    HW110616   4.294   1.642   4.643
 3599SOL    HW210617   4.272   1.489   4.592
 3600SOL     OW10618   4.726   0.796   4.962
 3600SOL    HW110619   4.767   0.764   5.048
 3600SOL    HW210620   4.630   0.769   4.959
 3601SOL     OW10621   3.764   0.544   4.838
 3601SOL    HW110622   3.849   0.511   4.797
 3601SOL    HW210623   3.777   0.559   4.936
 3602SOL     OW10624   4.539   0.572   4.049
 3602SOL    HW110625   4.546   0.483   4.003
 3602SOL    HW210626   4.445   0.606   4.041
 3603SOL     OW10627   4.395   0.464   4.993
 3603SOL    HW110628   4.361   0.375   4.963
 3603SOL    HW210629   4.421   0.518   4.913
 3604SOL     OW10630   4.654   1.678   5.189
 3604SOL    HW110631   4.630   1.660   5.094
 3604SOL    HW210632   4.684   1.772   5.199
 3605SOL     OW10633   4.197   0.500   3.915
 3605SOL    HW110634   4.258   0.580   3.919
 3605SOL    HW210635   4.102   0.531   3.922
 3606SOL     OW10636   5.071   1.059   4.958
 3606SOL    HW110637   5.095   0.996   4.884
 3606SOL    HW210638   4.981   1.099   4.940
 3607SOL     OW10639   4.976   1.731   4.852
 3607SOL    HW110640   5.060   1.736   4.798
 3607SOL    HW210641   4.953   1.635   4.870
 3608SOL     OW10642   3.807   1.258   4.746
 3608SOL    HW110643   3.802   1.257   4.846
 3608SOL    HW210644   3.724   1.217   4.708
 3609SOL     OW10645   5.112   1.573   4.201
 3609SOL    HW110646   5.179   1.585   4.127
 3609SOL    HW210647   5.072   1.662   4.224
 3610SOL     OW10648   5.004   0.927   4.396
 3610SOL    HW110649   5.064   0.846   4.398
 3610SOL    HW210650   5.044   0.996   4.336
 3611SOL     OW10651   4.396   1.616   3.878
 3611SOL    HW110652   4.405   1.626   3.779
 3611SOL    HW210653   4.356   1.527   3.899
 3612SOL     OW10654   3.987   0.326   4.444
 3612SOL    HW110655   3.908   0.377   4.410
 3612SOL    HW210656   3.978   0.311   4.542
 3613SOL     OW10657   4.918   1.612   3.755
 3613SOL    HW110658   4.924   1.519   3.792
 3613SOL    HW210659   4.859   1.612   3.675
 3614SOL     OW10660   4.546   1.002   5.096
 3614SOL    HW110661   4.586   1.001   5.004
 3614SOL    HW210662   4.556   1.094   5.136
 3615SOL     OW10663   4.640   0.910   4.015
 3615SOL    HW110664   4.703   0.948   3.947
 3615SOL    HW210665   4.680   0.827   4.054
 3616SOL     OW10666   4.763   1.098   4.420
 3616SOL    HW110667   4.693   1.051   4.474
 3616SOL    HW210668   4.822   1.030   4.377
 3617SOL     OW10669   4.738   0.236   4.695
 3617SOL    HW110670   4.730   0.200   4.602
 3617SOL    HW210671   4.736   0.160   4.760
 3618SOL     OW10672   4.314   1.487   4.215
 3618SOL    HW110673   4.356   1.429   4.145
 3618SOL    HW210674   4.270   1.566   4.171
 3619SOL     OW10675   3.979   1.348   4.014
 3619SOL    HW110676   3.883   1.349   3.987
 3619SOL    HW210677   3.991   1.401   4.098
 3620SOL     OW10678   3.799   0.345   3.757
 3620SOL    HW110679   3.707   0.317   3.728
 3620SOL    HW210680   3.830   0.422   3.701
 3621SOL     OW10681   3.796   0.166   4.042
 3621SOL    HW110682   3.779   0.249   3.988
 3621SOL    HW210683   3.886   0.129   4.020
 3622SOL     OW10684   4.949   0.325   4.173
 3622SOL    HW110685   5.014   0.251   4.162
 3622SOL    HW210686   4.969   0.375   4.257
 3623SOL     OW10687   4.318   0.745   4.376
 3623SOL    HW110688   4.368   0.830   4.357
 3623SOL    HW210689   4.230   0.747   4.328
 3624SOL     OW10690   4.583   1.374   3.740
 3624SOL    HW110691   4.537   1.389   3.828
 3624SOL    HW210692   4.627   1.459   3.710
 3625SOL     OW10693   4.385   1.790   4.677
 3625SOL    HW110694   4.339   1.878   4.664
 3625SOL    HW210695   4.484   1.802   4.670
 3626SOL     OW10696   4.583   0.956   4.585
 3626SOL    HW110697   4.637   0.887   4.633
 3626SOL    HW210698   4.551   1.025   4.651
 3627SOL     OW10699   4.807   0.984   3.811
 3627SOL    HW110700   4.784   1.037   3.729
 3627SOL    HW210701   4.888   0.928   3.792
 3628SOL     OW10702   3.803   1.240   4.377
 3628SOL    HW110703   3.802   1.193   4.465
 3628SOL    HW210704   3.885   1.212   4.326
 3629SOL     OW10705   4.152   0.424   4.244
 3629SOL    HW110706   4.182   0.352   4.182
 3629SOL    HW210707   4.113   0.384   4.327
 3630SOL     OW10708   4.536   1.586   4.411
 3630SOL    HW110709   4.568   1.596   4.317
 3630SOL    HW210710   4.457   1.524   4.413
 3631SOL     OW10711   4.725   0.034   4.878
 3631SOL    HW110712   4.662  -0.038   4.847
 3631SOL    HW210713   4.818  -0.002   4.878
 3632SOL     OW10714   4.494   1.330   4.025
 3632SOL    HW110715   4.448   1.243   4.042
 3632SOL    HW210716   4.585   1.327   4.066
 3633SOL     OW10717   3.763   1.077   4.024
 3633SOL    HW110718   3.862   1.066   4.015
 3633SOL    HW210719   3.723   0.991   4.056
 3634SOL     OW10720   4.599   1.646   4.061
 3634SOL    HW110721   4.522   1.611   4.007
 3634SOL    HW210722   4.567   1.717   4.123
 3635SOL     OW10723   3.954   2.490   0.113
 3635SOL    HW110724   3.861   2.488   0.150
 3635SOL    HW210725   3.955   2.451   0.021
 3636SOL     OW10726   3.949   2.137   0.996
 3636SOL    HW110727   3.984   2.120   1.088
 3636SOL    HW210728   3.861   2.092   0.984
 3637SOL     OW10729   3.743   2.230   0.647
 3637SOL    HW110730   3.661   2.273   0.686
 3637SOL    HW210731   3.715   2.157   0.584
 3638SOL     OW10732   4.293   3.137   1.165
 3638SOL    HW110733   4.200   3.130   1.128
 3638SOL    HW210734   4.304   3.226   1.209
 3639SOL     OW10735   4.859   2.565   0.717
 3639SOL    HW110736   4.916   2.643   0.692
 3639SOL    HW210737   4.799   2.591   0.793
 3640SOL     OW10738   4.492   3.006   1.023
 3640SOL    HW110739   4.414   3.023   1.083
 3640SOL    HW210740   4.526   3.093   0.987
 3641SOL     OW10741   4.574   2.660   1.823
 3641SOL    HW110742   4.570   2.736   1.888
 3641SOL    HW210743   4.596   2.696   1.732
 3642SOL     OW10744   4.409   2.874   0.665
 3642SOL    HW110745   4.478   2.858   0.735
 3642SOL    HW210746   4.336   2.931   0.703
 3643SOL     OW10747   4.410   3.023   1.803
 3643SOL    HW110748   4.470   3.102   1.817
 3643SOL    HW210749   4.324   3.054   1.762
 3644SOL     OW10750   4.059   3.297   1.061
 3644SOL    HW110751   3.981   3.266   1.008
 3644SOL    HW210752   4.117   3.355   1.004
 3645SOL     OW10753   4.162   2.254   1.499
 3645SOL    HW110754   4.244   2.198   1.508
 3645SOL    HW210755   4.081   2.196   1.503
 3646SOL     OW10756   3.955   3.575   0.483
 3646SOL    HW110757   3.989   3.652   0.537
 3646SOL    HW210758   3.999   3.575   0.393
 3647SOL     OW10759   4.851   3.203   1.690
 3647SOL    HW110760   4.898   3.203   1.778
 3647SOL    HW210761   4.803   3.116   1.679
 3648SOL     OW10762   3.954   3.296   0.538
 3648SOL    HW110763   3.928   3.392   0.538
 3648SOL    HW210764   3.883   3.242   0.583
 3649SOL     OW10765   3.964   2.953   0.886
 3649SOL    HW110766   3.978   2.869   0.938
 3649SOL    HW210767   3.909   3.017   0.941
 3650SOL     OW10768   4.344   3.648   1.439
 3650SOL    HW110769   4.252   3.631   1.474
 3650SOL    HW210770   4.372   3.740   1.465
 3651SOL     OW10771   4.330   2.826   0.123
 3651SOL    HW110772   4.337   2.910   0.069
 3651SOL    HW210773   4.376   2.839   0.211
 3652SOL     OW10774   3.846   2.505   0.563
 3652SOL    HW110775   3.801   2.417   0.580
 3652SOL    HW210776   3.845   2.559   0.647
 3653SOL     OW10777   3.751   3.458   0.117
 3653SOL    HW110778   3.732   3.362   0.138
 3653SOL    HW210779   3.718   3.516   0.192
 3654SOL     OW10780   3.837   2.599   1.597
 3654SOL    HW110781   3.925   2.586   1.642
 3654SOL    HW210782   3.824   2.696   1.575
 3655SOL     OW10783   4.337   3.227   0.726
 3655SOL    HW110784   4.288   3.140   0.735
 3655SOL    HW210785   4.314   3.270   0.639
 3656SOL     OW10786   5.017   3.090   1.423
 3656SOL    HW110787   5.054   3.017   1.365
 3656SOL    HW210788   5.069   3.095   1.508
 3657SOL     OW10789   4.533   1.866   0.502
 3657SOL    HW110790   4.573   1.957   0.493
 3657SOL    HW210791   4.433   1.874   0.508
 3658SOL     OW10792   3.921   2.838   1.264
 3658SOL    HW110793   4.010   2.793   1.250
 3658SOL    HW210794   3.848   2.773   1.245
 3659SOL     OW10795   4.911   3.654   1.616
 3659SOL    HW110796   4.935   3.714   1.540
 3659SOL    HW210797   4.918   3.559   1.586
 3660SOL     OW10798   4.041   2.113   1.801
 3660SOL    HW110799   4.112   2.184   1.807
 3660SOL    HW210800   3.953   2.152   1.829
 3661SOL     OW10801   4.322   2.591   0.270
 3661SOL    HW110802   4.346   2.660   0.202
 3661SOL    HW210803   4.244   2.624   0.324
 3662SOL     OW10804   5.005   2.207   0.944
 3662SOL    HW110805   4.919   2.157   0.931
 3662SOL    HW210806   5.067   2.153   1.000
 3663SOL     OW10807   4.531   2.467   1.465
 3663SOL    HW110808   4.484   2.464   1.554
 3663SOL    HW210809   4.480   2.412   1.399
 3664SOL     OW10810   4.697   2.752   1.572
 3664SOL    HW110811   4.743   2.668   1.543
 3664SOL    HW210812   4.641   2.786   1.497
 3665SOL     OW10813   4.715   2.272   1.242
 3665SOL    HW110814   4.638   2.306   1.296
 3665SOL    HW210815   4.681   2.221   1.163
 3666SOL     OW10816   4.765   2.563   0.429
 3666SOL    HW110817   4.791   2.559   0.525
 3666SOL    HW210818   4.680   2.512   0.415
 3667SOL     OW10819   3.800   2.673   0.789
 3667SOL    HW110820   3.899   2.661   0.798
 3667SOL    HW210821   3.776   2.768   0.810
 3668SOL     OW10822   3.854   3.683   1.571
 3668SOL    HW110823   3.844   3.668   1.670
 3668SOL    HW210824   3.768   3.719   1.535
 3669SOL     OW10825   4.589   2.210   0.195
 3669SOL    HW110826   4.648   2.273   0.146
 3669SOL    HW210827   4.608   2.116   0.166
 3670SOL     OW10828   4.274   2.058   0.885
 3670SOL    HW110829   4.269   2.053   0.985
 3670SOL    HW210830   4.276   2.154   0.856
 3671SOL     OW10831   4.732   3.318   0.477
 3671SOL    HW110832   4.686   3.390   0.425
 3671SOL    HW210833   4.728   3.338   0.575
 3672SOL     OW10834   4.075   3.663   0.853
 3672SOL    HW110835   4.125   3.577   0.859
 3672SOL    HW210836   4.140   3.740   0.850
 3673SOL     OW10837   4.951   3.412   1.506
 3673SOL    HW110838   4.957   3.335   1.570
 3673SOL    HW210839   4.899   3.386   1.426
 3674SOL     OW10840   4.045   2.805   0.242
 3674SOL    HW110841   4.127   2.844   0.200
 3674SOL    HW210842   4.018   2.723   0.193
 3675SOL     OW10843   4.185   3.128   1.727
 3675SOL    HW110844   4.135   3.129   1.641
 3675SOL    HW210845   4.122   3.110   1.803
 3676SOL     OW10846   4.835   3.638   0.237
 3676SOL    HW110847   4.775   3.576   0.287
 3676SOL    HW210848   4.866   3.594   0.152
 3677SOL     OW10849   3.926   2.147   1.498
 3677SOL    HW110850   3.846   2.207   1.485
 3677SOL    HW210851   3.916   2.098   1.584
 3678SOL     OW10852   5.356   3.239   0.081
 3678SOL    HW110853   5.324   3.333   0.071
 3678SOL    HW210854   5.280   3.176   0.069
 3679SOL     OW10855   4.188   3.605   0.323
 3679SOL    HW110856   4.221   3.644   0.409
 3679SOL    HW210857   4.264   3.598   0.258
 3680SOL     OW10858   3.973   3.647   1.241
 3680SOL    HW110859   4.030   3.582   1.291
 3680SOL    HW210860   3.957   3.614   1.148
 3681SOL     OW10861   4.664   3.560   0.904
 3681SOL    HW110862   4.744   3.503   0.925
 3681SOL    HW210863   4.615   3.520   0.827
 3682SOL     OW10864   4.106   2.562   0.480
 3682SOL    HW110865   4.151   2.472   0.477
 3682SOL    HW210866   4.012   2.551   0.513
 3683SOL     OW10867   4.505   2.126   1.749
 3683SOL    HW110868   4.572   2.065   1.792
 3683SOL    HW210869   4.432   2.145   1.814
 3684SOL     OW10870   4.612   3.376   1.195
 3684SOL    HW110871   4.589   3.351   1.101
 3684SOL    HW210872   4.673   3.307   1.234
 3685SOL     OW10873   4.527   3.264   0.924
 3685SOL    HW110874   4.617   3.278   0.882
 3685SOL    HW210875   4.456   3.266   0.853
 3686SOL     OW10876   4.646   2.365   0.899
 3686SOL    HW110877   4.621   2.356   0.803
 3686SOL    HW210878   4.694   2.283   0.930
 3687SOL     OW10879   4.263   1.926   0.512
 3687SOL    HW110880   4.182   1.927   0.570
 3687SOL    HW210881   4.266   2.009   0.457
 3688SOL     OW10882   4.021   1.897   0.171
 3688SOL    HW110883   4.070   1.981   0.150
 3688SOL    HW210884   4.083   1.832   0.216
 3689SOL     OW10885   4.659   2.098   0.480
 3689SOL    HW110886   4.611   2.139   0.402
 3689SOL    HW210887   4.758   2.096   0.461
 3690SOL     OW10888   4.800   2.545   1.464
 3690SOL    HW110889   4.720   2.484   1.467
 3690SOL    HW210890   4.881   2.492   1.440
 3691SOL     OW10891   4.951   3.432   0.793
 3691SOL    HW110892   4.972   3.506   0.728
 3691SOL    HW210893   5.019   3.432   0.866
 3692SOL     OW10894   4.183   3.014   0.741
 3692SOL    HW110895   4.112   2.987   0.806
 3692SOL    HW210896   4.157   2.986   0.648
 3693SOL     OW10897   4.995   3.659   0.591
 3693SOL    HW110898   5.039   3.723   0.527
 3693SOL    HW210899   4.945   3.711   0.661
 3694SOL     OW10900   4.756   2.411   0.016
 3694SOL    HW110901   4.715   2.493  -0.023
 3694SOL    HW210902   4.820   2.437   0.089
 3695SOL     OW10903   3.802   2.418   1.386
 3695SOL    HW110904   3.894   2.417   1.345
 3695SOL    HW210905   3.796   2.492   1.453
 3696SOL     OW10906   4.285   2.084   1.147
 3696SOL    HW110907   4.323   2.000   1.184
 3696SOL    HW210908   4.197   2.103   1.191
 3697SOL     OW10909   4.590   2.316   0.642
 3697SOL    HW110910   4.558   2.388   0.580
 3697SOL    HW210911   4.614   2.235   0.589
 3698SOL     OW10912   4.741   1.901   0.753
 3698SOL    HW110913   4.669   1.906   0.684
 3698SOL    HW210914   4.717   1.832   0.822
 3699SOL     OW10915   4.212   3.247   0.174
 3699SOL    HW110916   4.125   3.232   0.221
 3699SOL    HW210917   4.195   3.273   0.079
 3700SOL     OW10918   5.388   3.142   0.657
 3700SOL    HW110919   5.487   3.150   0.671
 3700SOL    HW210920   5.343   3.226   0.688
 3701SOL     OW10921   4.251   2.118   0.328
 3701SOL    HW110922   4.278   2.059   0.253
 3701SOL    HW210923   4.251   2.213   0.297
 3702SOL     OW10924   4.788   3.209   1.340
 3702SOL    HW110925   4.708   3.186   1.395
 3702SOL    HW210926   4.871   3.183   1.389
 3703SOL     OW10927   4.835   3.057   1.100
 3703SOL    HW110928   4.795   3.101   1.181
 3703SOL    HW210929   4.794   3.094   1.017
 3704SOL     OW10930   4.639   1.951   1.402
 3704SOL    HW110931   4.664   1.931   1.307
 3704SOL    HW210932   4.711   2.007   1.444
 3705SOL     OW10933   4.704   2.978   1.719
 3705SOL    HW110934   4.605   2.984   1.729
 3705SOL    HW210935   4.727   2.898   1.663
 3706SOL     OW10936   4.429   2.912   0.368
 3706SOL    HW110937   4.415   2.919   0.467
 3706SOL    HW210938   4.513   2.861   0.350
 3707SOL     OW10939   4.134   2.675   1.251
 3707SOL    HW110940   4.220   2.687   1.301
 3707SOL    HW210941   4.092   2.588   1.278
 3708SOL     OW10942   4.998   2.248   1.262
 3708SOL    HW110943   5.019   2.322   1.326
 3708SOL    HW210944   4.909   2.265   1.219
 3709SOL     OW10945   3.788   3.426   1.331
 3709SOL    HW110946   3.742   3.508   1.297
 3709SOL    HW210947   3.886   3.445   1.340
 3710SOL     OW10948   4.091   2.962   0.501
 3710SOL    HW110949   4.084   3.045   0.445
 3710SOL    HW210950   4.095   2.882   0.441
 3711SOL     OW10951   4.290   2.399   0.865
 3711SOL    HW110952   4.302   2.465   0.791
 3711SOL    HW210953   4.336   2.433   0.948
 3712SOL     OW10954   4.976   3.210   0.388
 3712SOL    HW110955   5.026   3.287   0.428
 3712SOL    HW210956   4.881   3.212   0.420
 3713SOL     OW10957   4.078   3.372   1.329
 3713SOL    HW110958   4.057   3.328   1.242
 3713SOL    HW210959   4.175   3.398   1.332
 3714SOL     OW10960   4.126   2.613   1.598
 3714SOL    HW110961   4.194   2.668   1.551
 3714SOL    HW210962   4.166   2.525   1.625
 3715SOL     OW10963   4.737   1.967   1.770
 3715SOL    HW110964   4.743   2.052   1.718
 3715SOL    HW210965   4.769   1.891   1.713
 3716SOL     OW10966   4.228   1.912   1.740
 3716SOL    HW110967   4.186   1.855   1.670
 3716SOL    HW210968   4.162   1.981   1.772
 3717SOL     OW10969   4.297   2.732   1.029
 3717SOL    HW110970   4.341   2.821   1.020
 3717SOL    HW210971   4.234   2.732   1.106
 3718SOL     OW10972   5.084   2.724   1.045
 3718SOL    HW110973   5.009   2.724   0.979
 3718SOL    HW210974   5.121   2.632   1.054
 3719SOL     OW10975   4.933   2.387   0.275
 3719SOL    HW110976   4.946   2.303   0.329
 3719SOL    HW210977   4.904   2.461   0.335
 3720SOL     OW10978   4.031   2.075   1.231
 3720SOL    HW110979   4.008   2.112   1.321
 3720SOL    HW210980   4.001   1.980   1.225
 3721SOL     OW10981   3.761   3.172   1.282
 3721SOL    HW110982   3.814   3.123   1.350
 3721SOL    HW210983   3.783   3.270   1.287
 3722SOL     OW10984   4.456   2.496   1.064
 3722SOL    HW110985   4.515   2.470   0.988
 3722SOL    HW210986   4.428   2.592   1.053
 3723SOL     OW10987   4.031   1.925   0.618
 3723SOL    HW110988   4.020   2.019   0.651
 3723SOL    HW210989   4.026   1.862   0.695
 3724SOL     OW10990   5.346   2.229   0.374
 3724SOL    HW110991   5.348   2.153   0.438
 3724SOL    HW210992   5.298   2.306   0.414
 3725SOL     OW10993   4.747   2.628   0.966
 3725SOL    HW110994   4.762   2.649   1.062
 3725SOL    HW210995   4.717   2.533   0.957
 3726SOL     OW10996   4.704   3.435   1.700
 3726SOL    HW110997   4.684   3.479   1.612
 3726SOL    HW210998   4.743   3.344   1.684
 3727SOL     OW10999   4.074   2.760   1.804
 3727SOL    HW111000   4.150   2.804   1.852
 3727SOL    HW211001   4.109   2.713   1.722
 3728SOL     OW11002   5.027   2.700   0.042
 3728SOL    HW111003   5.061   2.607   0.057
 3728SOL    HW211004   5.045   2.727  -0.053
 3729SOL     OW11005   4.792   3.195   0.849
 3729SOL    HW111006   4.799   3.111   0.794
 3729SOL    HW211007   4.854   3.264   0.813
 3730SOL     OW11008   4.043   2.672   0.949
 3730SOL    HW111009   4.136   2.708   0.954
 3730SOL    HW211010   4.037   2.587   1.001
 3731SOL     OW11011   4.063   2.371   1.006
 3731SOL    HW111012   4.011   2.288   0.989
 3731SOL    HW211013   4.140   2.376   0.942
 3732SOL     OW11014   4.862   2.242   1.678
 3732SOL    HW111015   4.817   2.305   1.742
 3732SOL    HW211016   4.955   2.273   1.661
 3733SOL     OW11017   4.884   2.069   1.477
 3733SOL    HW111018   4.884   2.133   1.554
 3733SOL    HW211019   4.912   2.117   1.394
 3734SOL     OW11020   3.812   3.663   0.927
 3734SOL    HW111021   3.770   3.577   0.900
 3734SOL    HW211022   3.906   3.666   0.893
 3735SOL     OW11023   4.228   3.430   0.910
 3735SOL    HW111024   4.294   3.504   0.919
 3735SOL    HW211025   4.272   3.351   0.868
 3736SOL     OW11026   4.726   2.658   1.238
 3736SOL    HW111027   4.767   2.626   1.324
 3736SOL    HW211028   4.630   2.631   1.235
 3737SOL     OW11029   3.764   2.406   1.114
 3737SOL    HW111030   3.849   2.373   1.073
 3737SOL    HW211031   3.777   2.421   1.212
 3738SOL     OW11032   3.913   2.382   1.722
 3738SOL    HW111033   3.972   2.342   1.652
 3738SOL    HW211034   3.855   2.453   1.681
 3739SOL     OW11035   4.539   2.434   0.325
 3739SOL    HW111036   4.546   2.345   0.279
 3739SOL    HW211037   4.445   2.468   0.317
 3740SOL     OW11038   3.976   3.426   1.744
 3740SOL    HW111039   3.946   3.483   1.820
 3740SOL    HW211040   3.969   3.329   1.770
 3741SOL     OW11041   4.395   2.326   1.269
 3741SOL    HW111042   4.361   2.237   1.239
 3741SOL    HW211043   4.421   2.380   1.189
 3742SOL     OW11044   4.654   3.540   1.465
 3742SOL    HW111045   4.630   3.522   1.370
 3742SOL    HW211046   4.684   3.634   1.475
 3743SOL     OW11047   4.197   2.362   0.191
 3743SOL    HW111048   4.258   2.442   0.195
 3743SOL    HW211049   4.102   2.393   0.198
 3744SOL     OW11050   3.883   2.999   1.466
 3744SOL    HW111051   3.905   2.938   1.542
 3744SOL    HW211052   3.893   2.950   1.380
 3745SOL     OW11053   5.071   2.921   1.234
 3745SOL    HW111054   5.095   2.858   1.160
 3745SOL    HW211055   4.981   2.961   1.216
 3746SOL     OW11056   4.976   3.593   1.128
 3746SOL    HW111057   5.060   3.598   1.074
 3746SOL    HW211058   4.953   3.497   1.146
 3747SOL     OW11059   3.807   3.120   1.022
 3747SOL    HW111060   3.802   3.119   1.122
 3747SOL    HW211061   3.724   3.079   0.984
 3748SOL     OW11062   4.412   3.524   1.716
 3748SOL    HW111063   4.356   3.605   1.725
 3748SOL    HW211064   4.464   3.528   1.630
 3749SOL     OW11065   4.627   1.948   0.133
 3749SOL    HW111066   4.678   1.949   0.047
 3749SOL    HW211067   4.683   1.906   0.204
 3750SOL     OW11068   5.112   3.435   0.477
 3750SOL    HW111069   5.179   3.447   0.403
 3750SOL    HW211070   5.072   3.524   0.500
 3751SOL     OW11071   3.854   3.656   1.851
 3751SOL    HW111072   3.813   3.582   1.904
 3751SOL    HW211073   3.918   3.707   1.909
 3752SOL     OW11074   5.004   2.789   0.672
 3752SOL    HW111075   5.064   2.708   0.674
 3752SOL    HW211076   5.044   2.858   0.612
 3753SOL     OW11077   4.554   3.135   1.422
 3753SOL    HW111078   4.549   3.168   1.517
 3753SOL    HW211079   4.468   3.154   1.376
 3754SOL     OW11080   4.396   3.478   0.154
 3754SOL    HW111081   4.405   3.488   0.055
 3754SOL    HW211082   4.356   3.389   0.175
 3755SOL     OW11083   3.987   2.188   0.720
 3755SOL    HW111084   3.908   2.239   0.686
 3755SOL    HW211085   3.978   2.173   0.818
 3756SOL     OW11086   4.918   3.474   0.031
 3756SOL    HW111087   4.924   3.381   0.068
 3756SOL    HW211088   4.859   3.474  -0.049
 3757SOL     OW11089   4.546   2.864   1.372
 3757SOL    HW111090   4.586   2.863   1.280
 3757SOL    HW211091   4.556   2.956   1.412
 3758SOL     OW11092   4.640   2.772   0.291
 3758SOL    HW111093   4.703   2.810   0.223
 3758SOL    HW211094   4.680   2.689   0.330
 3759SOL     OW11095   4.096   3.150   1.490
 3759SOL    HW111096   4.083   3.243   1.456
 3759SOL    HW211097   4.012   3.098   1.477
 3760SOL     OW11098   4.763   2.960   0.696
 3760SOL    HW111099   4.693   2.913   0.750
 3760SOL    HW211100   4.822   2.892   0.653
 3761SOL     OW11101   4.738   2.098   0.971
 3761SOL    HW111102   4.730   2.062   0.878
 3761SOL    HW211103   4.736   2.022   1.036
 3762SOL     OW11104   4.314   3.349   0.491
 3762SOL    HW111105   4.356   3.291   0.421
 3762SOL    HW211106   4.270   3.428   0.447
 3763SOL     OW11107   3.979   3.210   0.290
 3763SOL    HW111108   3.883   3.211   0.263
 3763SOL    HW211109   3.991   3.263   0.374
 3764SOL     OW11110   3.829   2.875   1.726
 3764SOL    HW111111   3.752   2.842   1.780
 3764SOL    HW211112   3.914   2.845   1.768
 3765SOL     OW11113   4.396   2.065   1.489
 3765SOL    HW111114   4.486   2.049   1.449
 3765SOL    HW211115   4.404   2.070   1.588
 3766SOL     OW11116   5.164   2.718   1.398
 3766SOL    HW111117   5.107   2.770   1.335
 3766SOL    HW211118   5.260   2.730   1.374
 3767SOL     OW11119   3.796   2.028   0.318
 3767SOL    HW111120   3.779   2.111   0.264
 3767SOL    HW211121   3.886   1.991   0.296
 3768SOL     OW11122   4.337   2.704   1.431
 3768SOL    HW111123   4.393   2.785   1.414
 3768SOL    HW211124   4.396   2.624   1.434
 3769SOL     OW11125   4.440   2.427   1.708
 3769SOL    HW111126   4.459   2.492   1.782
 3769SOL    HW211127   4.500   2.347   1.717
 3770SOL     OW11128   4.114   3.603   1.560
 3770SOL    HW111129   4.023   3.644   1.558
 3770SOL    HW211130   4.107   3.509   1.592
 3771SOL     OW11131   4.949   2.187   0.449
 3771SOL    HW111132   5.014   2.113   0.438
 3771SOL    HW211133   4.969   2.237   0.533
 3772SOL     OW11134   4.318   2.607   0.652
 3772SOL    HW111135   4.368   2.692   0.633
 3772SOL    HW211136   4.230   2.609   0.604
 3773SOL     OW11137   4.583   3.236   0.016
 3773SOL    HW111138   4.537   3.251   0.104
 3773SOL    HW211139   4.627   3.321  -0.014
 3774SOL     OW11140   4.385   3.652   0.953
 3774SOL    HW111141   4.339   3.740   0.940
 3774SOL    HW211142   4.484   3.664   0.946
 3775SOL     OW11143   4.583   2.818   0.861
 3775SOL    HW111144   4.637   2.749   0.909
 3775SOL    HW211145   4.551   2.887   0.927
 3776SOL     OW11146   4.807   2.846   0.087
 3776SOL    HW111147   4.784   2.899   0.005
 3776SOL    HW211148   4.888   2.790   0.068
 3777SOL     OW11149   3.945   3.176   1.844
 3777SOL    HW111150   3.880   3.103   1.823
 3777SOL    HW211151   3.949   3.190   1.942
 3778SOL     OW11152   3.803   3.102   0.653
 3778SOL    HW111153   3.802   3.055   0.741
 3778SOL    HW211154   3.885   3.074   0.602
 3779SOL     OW11155   4.396   3.253   1.624
 3779SOL    HW111156   4.318   3.203   1.662
 3779SOL    HW211157   4.393   3.348   1.655
 3780SOL     OW11158   4.152   2.286   0.520
 3780SOL    HW111159   4.182   2.214   0.458
 3780SOL    HW211160   4.113   2.246   0.603
 3781SOL     OW11161   4.041   2.409   1.280
 3781SOL    HW111162   4.079   2.350   1.352
 3781SOL    HW211163   4.081   2.383   1.192
 3782SOL     OW11164   4.536   3.448   0.687
 3782SOL    HW111165   4.568   3.458   0.593
 3782SOL    HW211166   4.457   3.386   0.689
 3783SOL     OW11167   4.725   1.896   1.154
 3783SOL    HW111168   4.662   1.824   1.123
 3783SOL    HW211169   4.818   1.860   1.154
 3784SOL     OW11170   4.494   3.192   0.301
 3784SOL    HW111171   4.448   3.105   0.318
 3784SOL    HW211172   4.585   3.189   0.342
 3785SOL     OW11173   4.342   3.429   1.284
 3785SOL    HW111174   4.337   3.511   1.341
 3785SOL    HW211175   4.431   3.426   1.239
 3786SOL     OW11176   3.763   2.939   0.300
 3786SOL    HW111177   3.862   2.928   0.291
 3786SOL    HW211178   3.723   2.853   0.332
 3787SOL     OW11179   4.599   3.508   0.337
 3787SOL    HW111180   4.522   3.473   0.283
 3787SOL    HW211181   4.567   3.579   0.399
 3788SOL     OW11182   3.954   2.490   1.975
 3788SOL    HW111183   3.861   2.488   2.012
 3788SOL    HW211184   3.955   2.451   1.883
 3789SOL     OW11185   3.949   2.137   2.858
 3789SOL    HW111186   3.984   2.120   2.950
 3789SOL    HW211187   3.861   2.092   2.846
 3790SOL     OW11188   4.293   3.137   3.027
 3790SOL    HW111189   4.200   3.130   2.990
 3790SOL    HW211190   4.304   3.226   3.071
 3791SOL     OW11191   4.859   2.565   2.579
 3791SOL    HW111192   4.916   2.643   2.554
 3791SOL    HW211193   4.799   2.591   2.655
 3792SOL     OW11194   4.492   3.006   2.885
 3792SOL    HW111195   4.414   3.023   2.945
 3792SOL    HW211196   4.526   3.093   2.849
 3793SOL     OW11197   4.574   2.660   3.685
 3793SOL    HW111198   4.570   2.736   3.750
 3793SOL    HW211199   4.596   2.696   3.594
 3794SOL     OW11200   4.409   2.874   2.527
 3794SOL    HW111201   4.478   2.858   2.597
 3794SOL    HW211202   4.336   2.931   2.565
 3795SOL     OW11203   4.410   3.023   3.665
 3795SOL    HW111204   4.470   3.102   3.679
 3795SOL    HW211205   4.324   3.054   3.624
 3796SOL     OW11206   4.059   3.297   2.923
 3796SOL    HW111207   3.981   3.266   2.870
 3796SOL    HW211208   4.117   3.355   2.866
 3797SOL     OW11209   4.162   2.254   3.361
 3797SOL    HW111210   4.244   2.198   3.370
 3797SOL    HW211211   4.081   2.196   3.365
 3798SOL     OW11212   3.955   3.575   2.345
 3798SOL    HW111213   3.989   3.652   2.399
 3798SOL    HW211214   3.999   3.575   2.255
 3799SOL     OW11215   4.851   3.203   3.552
 3799SOL    HW111216   4.898   3.203   3.640
 3799SOL    HW211217   4.803   3.116   3.541
 3800SOL     OW11218   3.954   3.296   2.400
 3800SOL    HW111219   3.928   3.392   2.400
 3800SOL    HW211220   3.883   3.242   2.445
 3801SOL     OW11221   3.964   2.953   2.748
 3801SOL    HW111222   3.978   2.869   2.800
 3801SOL    HW211223   3.909   3.017   2.803
 3802SOL     OW11224   4.344   3.648   3.301
 3802SOL    HW111225   4.252   3.631   3.336
 3802SOL    HW211226   4.372   3.740   3.327
 3803SOL     OW11227   4.330   2.826   1.985
 3803SOL    HW111228   4.337   2.910   1.931
 3803SOL    HW211229   4.376   2.839   2.073
 3804SOL     OW11230   3.751   3.458   1.979
 3804SOL    HW111231   3.732   3.362   2.000
 3804SOL    HW211232   3.718   3.516   2.054
 3805SOL     OW11233   3.837   2.599   3.459
 3805SOL    HW111234   3.925   2.586   3.504
 3805SOL    HW211235   3.824   2.696   3.437
 3806SOL     OW11236   4.337   3.227   2.588
 3806SOL    HW111237   4.288   3.140   2.597
 3806SOL    HW211238   4.314   3.270   2.501
 3807SOL     OW11239   5.017   3.090   3.285
 3807SOL    HW111240   5.054   3.017   3.227
 3807SOL    HW211241   5.069   3.095   3.370
 3808SOL     OW11242   4.533   1.866   2.364
 3808SOL    HW111243   4.573   1.957   2.355
 3808SOL    HW211244   4.433   1.874   2.370
 3809SOL     OW11245   3.921   2.838   3.126
 3809SOL    HW111246   4.010   2.793   3.112
 3809SOL    HW211247   3.848   2.773   3.107
 3810SOL     OW11248   4.911   3.654   3.478
 3810SOL    HW111249   4.935   3.714   3.402
 3810SOL    HW211250   4.918   3.559   3.448
 3811SOL     OW11251   4.041   2.113   3.663
 3811SOL    HW111252   4.112   2.184   3.669
 3811SOL    HW211253   3.953   2.152   3.691
 3812SOL     OW11254   4.322   2.591   2.132
 3812SOL    HW111255   4.346   2.660   2.064
 3812SOL    HW211256   4.244   2.624   2.186
 3813SOL     OW11257   5.005   2.207   2.806
 3813SOL    HW111258   4.919   2.157   2.793
 3813SOL    HW211259   5.067   2.153   2.862
 3814SOL     OW11260   4.531   2.467   3.327
 3814SOL    HW111261   4.484   2.464   3.416
 3814SOL    HW211262   4.480   2.412   3.261
 3815SOL     OW11263   4.697   2.752   3.434
 3815SOL    HW111264   4.743   2.668   3.405
 3815SOL    HW211265   4.641   2.786   3.359
 3816SOL     OW11266   4.715   2.272   3.104
 3816SOL    HW111267   4.638   2.306   3.158
 3816SOL    HW211268   4.681   2.221   3.025
 3817SOL     OW11269   4.765   2.563   2.291
 3817SOL    HW111270   4.791   2.559   2.387
 3817SOL    HW211271   4.680   2.512   2.277
 3818SOL     OW11272   3.854   3.683   3.433
 3818SOL    HW111273   3.844   3.668   3.532
 3818SOL    HW211274   3.768   3.719   3.397
 3819SOL     OW11275   4.589   2.210   2.057
 3819SOL    HW111276   4.648   2.273   2.008
 3819SOL    HW211277   4.608   2.116   2.028
 3820SOL     OW11278   4.274   2.058   2.747
 3820SOL    HW111279   4.269   2.053   2.847
 3820SOL    HW211280   4.276   2.154   2.718
 3821SOL     OW11281   4.732   3.318   2.339
 3821SOL    HW111282   4.686   3.390   2.287
 3821SOL    HW211283   4.728   3.338   2.437
 3822SOL     OW11284   4.075   3.663   2.715
 3822SOL    HW111285   4.125   3.577   2.721
 3822SOL    HW211286   4.140   3.740   2.712
 3823SOL     OW11287   4.951   3.412   3.368
 3823SOL    HW111288   4.957   3.335   3.432
 3823SOL    HW211289   4.899   3.386   3.288
 3824SOL     OW11290   4.045   2.805   2.104
 3824SOL    HW111291   4.127   2.844   2.062
 3824SOL    HW211292   4.018   2.723   2.055
 3825SOL     OW11293   4.185   3.128   3.589
 3825SOL    HW111294   4.135   3.129   3.503
 3825SOL    HW211295   4.122   3.110   3.665
 3826SOL     OW11296   4.835   3.638   2.099
 3826SOL    HW111297   4.775   3.576   2.149
 3826SOL    HW211298   4.866   3.594   2.014
 3827SOL     OW11299   3.926   2.147   3.360
 3827SOL    HW111300   3.846   2.207   3.347
 3827SOL    HW211301   3.916   2.098   3.446
 3828SOL     OW11302   4.188   3.605   2.185
 3828SOL    HW111303   4.221   3.644   2.271
 3828SOL    HW211304   4.264   3.598   2.120
 3829SOL     OW11305   3.973   3.647   3.103
 3829SOL    HW111306   4.030   3.582   3.153
 3829SOL    HW211307   3.957   3.614   3.010
 3830SOL     OW11308   4.664   3.560   2.766
 3830SOL    HW111309   4.744   3.503   2.787
 3830SOL    HW211310   4.615   3.520   2.689
 3831SOL     OW11311   4.106   2.562   2.342
 3831SOL    HW111312   4.151   2.472   2.339
 3831SOL    HW211313   4.012   2.551   2.375
 3832SOL     OW11314   4.338   1.984   1.979
 3832SOL    HW111315   4.436   1.962   1.986
 3832SOL    HW211316   4.307   1.967   1.886
 3833SOL     OW11317   4.505   2.126   3.611
 3833SOL    HW111318   4.572   2.065   3.654
 3833SOL    HW211319   4.432   2.145   3.676
 3834SOL     OW11320   4.612   3.376   3.057
 3834SOL    HW111321   4.589   3.351   2.963
 3834SOL    HW211322   4.673   3.307   3.096
 3835SOL     OW11323   4.527   3.264   2.786
 3835SOL    HW111324   4.617   3.278   2.744
 3835SOL    HW211325   4.456   3.266   2.715
 3836SOL     OW11326   4.646   2.365   2.761
 3836SOL    HW111327   4.621   2.356   2.665
 3836SOL    HW211328   4.694   2.283   2.792
 3837SOL     OW11329   4.263   1.926   2.374
 3837SOL    HW111330   4.182   1.927   2.432
 3837SOL    HW211331   4.266   2.009   2.319
 3838SOL     OW11332   4.021   1.897   2.033
 3838SOL    HW111333   4.070   1.981   2.012
 3838SOL    HW211334   4.083   1.832   2.078
 3839SOL     OW11335   4.659   2.098   2.342
 3839SOL    HW111336   4.611   2.139   2.264
 3839SOL    HW211337   4.758   2.096   2.323
 3840SOL     OW11338   4.800   2.545   3.326
 3840SOL    HW111339   4.720   2.484   3.329
 3840SOL    HW211340   4.881   2.492   3.302
 3841SOL     OW11341   4.951   3.432   2.655
 3841SOL    HW111342   4.972   3.506   2.590
 3841SOL    HW211343   5.019   3.432   2.728
 3842SOL     OW11344   4.183   3.014   2.603
 3842SOL    HW111345   4.112   2.987   2.668
 3842SOL    HW211346   4.157   2.986   2.510
 3843SOL     OW11347   4.995   3.659   2.453
 3843SOL    HW111348   5.039   3.723   2.389
 3843SOL    HW211349   4.945   3.711   2.523
 3844SOL     OW11350   4.756   2.411   1.878
 3844SOL    HW111351   4.715   2.493   1.839
 3844SOL    HW211352   4.820   2.437   1.951
 3845SOL     OW11353   3.802   2.418   3.248
 3845SOL    HW111354   3.894   2.417   3.207
 3845SOL    HW211355   3.796   2.492   3.315
 3846SOL     OW11356   4.285   2.084   3.009
 3846SOL    HW111357   4.323   2.000   3.046
 3846SOL    HW211358   4.197   2.103   3.053
 3847SOL     OW11359   4.590   2.316   2.504
 3847SOL    HW111360   4.558   2.388   2.442
 3847SOL    HW211361   4.614   2.235   2.451
 3848SOL     OW11362   4.741   1.901   2.615
 3848SOL    HW111363   4.669   1.906   2.546
 3848SOL    HW211364   4.717   1.832   2.684
 3849SOL     OW11365   4.212   3.247   2.036
 3849SOL    HW111366   4.125   3.232   2.083
 3849SOL    HW211367   4.195   3.273   1.941
 3850SOL     OW11368   5.388   3.142   2.519
 3850SOL    HW111369   5.487   3.150   2.533
 3850SOL    HW211370   5.343   3.226   2.550
 3851SOL     OW11371   4.251   2.118   2.190
 3851SOL    HW111372   4.278   2.059   2.115
 3851SOL    HW211373   4.251   2.213   2.159
 3852SOL     OW11374   4.788   3.209   3.202
 3852SOL    HW111375   4.708   3.186   3.257
 3852SOL    HW211376   4.871   3.183   3.251
 3853SOL     OW11377   4.835   3.057   2.962
 3853SOL    HW111378   4.795   3.101   3.043
 3853SOL    HW211379   4.794   3.094   2.879
 3854SOL     OW11380   4.639   1.951   3.264
 3854SOL    HW111381   4.664   1.931   3.169
 3854SOL    HW211382   4.711   2.007   3.306
 3855SOL     OW11383   4.704   2.978   3.581
 3855SOL    HW111384   4.605   2.984   3.591
 3855SOL    HW211385   4.727   2.898   3.525
 3856SOL     OW11386   4.429   2.912   2.230
 3856SOL    HW111387   4.415   2.919   2.329
 3856SOL    HW211388   4.513   2.861   2.212
 3857SOL     OW11389   4.134   2.675   3.113
 3857SOL    HW111390   4.220   2.687   3.163
 3857SOL    HW211391   4.092   2.588   3.140
 3858SOL     OW11392   4.998   2.248   3.124
 3858SOL    HW111393   5.019   2.322   3.188
 3858SOL    HW211394   4.909   2.265   3.081
 3859SOL     OW11395   3.788   3.426   3.193
 3859SOL    HW111396   3.742   3.508   3.159
 3859SOL    HW211397   3.886   3.445   3.202
 3860SOL     OW11398   4.091   2.962   2.363
 3860SOL    HW111399   4.084   3.045   2.307
 3860SOL    HW211400   4.095   2.882   2.303
 3861SOL     OW11401   4.290   2.399   2.727
 3861SOL    HW111402   4.302   2.465   2.653
 3861SOL    HW211403   4.336   2.433   2.810
 3862SOL     OW11404   4.976   3.210   2.250
 3862SOL    HW111405   5.026   3.287   2.290
 3862SOL    HW211406   4.881   3.212   2.282
 3863SOL     OW11407   4.078   3.372   3.191
 3863SOL    HW111408   4.057   3.328   3.104
 3863SOL    HW211409   4.175   3.398   3.194
 3864SOL     OW11410   4.126   2.613   3.460
 3864SOL    HW111411   4.194   2.668   3.413
 3864SOL    HW211412   4.166   2.525   3.487
 3865SOL     OW11413   4.737   1.967   3.632
 3865SOL    HW111414   4.743   2.052   3.580
 3865SOL    HW211415   4.769   1.891   3.575
 3866SOL     OW11416   4.228   1.912   3.602
 3866SOL    HW111417   4.186   1.855   3.532
 3866SOL    HW211418   4.162   1.981   3.634
 3867SOL     OW11419   4.297   2.732   2.891
 3867SOL    HW111420   4.341   2.821   2.882
 3867SOL    HW211421   4.234   2.732   2.968
 3868SOL     OW11422   5.084   2.724   2.907
 3868SOL    HW111423   5.009   2.724   2.841
 3868SOL    HW211424   5.121   2.632   2.916
 3869SOL     OW11425   4.933   2.387   2.137
 3869SOL    HW111426   4.946   2.303   2.191
 3869SOL    HW211427   4.904   2.461   2.197
 3870SOL     OW11428   4.031   2.075   3.093
 3870SOL    HW111429   4.008   2.112   3.183
 3870SOL    HW211430   4.001   1.980   3.087
 3871SOL     OW11431   3.761   3.172   3.144
 3871SOL    HW111432   3.814   3.123   3.212
 3871SOL    HW211433   3.783   3.270   3.149
 3872SOL     OW11434   4.456   2.496   2.926
 3872SOL    HW111435   4.515   2.470   2.850
 3872SOL    HW211436   4.428   2.592   2.915
 3873SOL     OW11437   4.031   1.925   2.480
 3873SOL    HW111438   4.020   2.019   2.513
 3873SOL    HW211439   4.026   1.862   2.557
 3874SOL     OW11440   5.346   2.229   2.236
 3874SOL    HW111441   5.348   2.153   2.300
 3874SOL    HW211442   5.298   2.306   2.276
 3875SOL     OW11443   4.747   2.628   2.828
 3875SOL    HW111444   4.762   2.649   2.924
 3875SOL    HW211445   4.717   2.533   2.819
 3876SOL     OW11446   4.704   3.435   3.562
 3876SOL    HW111447   4.684   3.479   3.474
 3876SOL    HW211448   4.743   3.344   3.546
 3877SOL     OW11449   4.074   2.760   3.666
 3877SOL    HW111450   4.150   2.804   3.714
 3877SOL    HW211451   4.109   2.713   3.584
 3878SOL     OW11452   5.027   2.700   1.904
 3878SOL    HW111453   5.061   2.607   1.919
 3878SOL    HW211454   5.045   2.727   1.809
 3879SOL     OW11455   4.792   3.195   2.711
 3879SOL    HW111456   4.799   3.111   2.656
 3879SOL    HW211457   4.854   3.264   2.675
 3880SOL     OW11458   4.043   2.672   2.811
 3880SOL    HW111459   4.136   2.708   2.816
 3880SOL    HW211460   4.037   2.587   2.863
 3881SOL     OW11461   4.063   2.371   2.868
 3881SOL    HW111462   4.011   2.288   2.851
 3881SOL    HW211463   4.140   2.376   2.804
 3882SOL     OW11464   4.862   2.242   3.540
 3882SOL    HW111465   4.817   2.305   3.604
 3882SOL    HW211466   4.955   2.273   3.523
 3883SOL     OW11467   4.884   2.069   3.339
 3883SOL    HW111468   4.884   2.133   3.416
 3883SOL    HW211469   4.912   2.117   3.256
 3884SOL     OW11470   3.732   3.188   2.062
 3884SOL    HW111471   3.639   3.209   2.031
 3884SOL    HW211472   3.742   3.089   2.075
 3885SOL     OW11473   3.812   3.663   2.789
 3885SOL    HW111474   3.770   3.577   2.762
 3885SOL    HW211475   3.906   3.666   2.755
 3886SOL     OW11476   4.228   3.430   2.772
 3886SOL    HW111477   4.294   3.504   2.781
 3886SOL    HW211478   4.272   3.351   2.730
 3887SOL     OW11479   4.726   2.658   3.100
 3887SOL    HW111480   4.767   2.626   3.186
 3887SOL    HW211481   4.630   2.631   3.097
 3888SOL     OW11482   3.764   2.406   2.976
 3888SOL    HW111483   3.849   2.373   2.935
 3888SOL    HW211484   3.777   2.421   3.074
 3889SOL     OW11485   3.913   2.382   3.584
 3889SOL    HW111486   3.972   2.342   3.514
 3889SOL    HW211487   3.855   2.453   3.543
 3890SOL     OW11488   4.539   2.434   2.187
 3890SOL    HW111489   4.546   2.345   2.141
 3890SOL    HW211490   4.445   2.468   2.179
 3891SOL     OW11491   3.976   3.426   3.606
 3891SOL    HW111492   3.946   3.483   3.682
 3891SOL    HW211493   3.969   3.329   3.632
 3892SOL     OW11494   4.395   2.326   3.131
 3892SOL    HW111495   4.361   2.237   3.101
 3892SOL    HW211496   4.421   2.380   3.051
 3893SOL     OW11497   4.654   3.540   3.327
 3893SOL    HW111498   4.630   3.522   3.232
 3893SOL    HW211499   4.684   3.634   3.337
 3894SOL     OW11500   4.197   2.362   2.053
 3894SOL    HW111501   4.258   2.442   2.057
 3894SOL    HW211502   4.102   2.393   2.060
 3895SOL     OW11503   3.883   2.999   3.328
 3895SOL    HW111504   3.905   2.938   3.404
 3895SOL    HW211505   3.893   2.950   3.242
 3896SOL     OW11506   5.071   2.921   3.096
 3896SOL    HW111507   5.095   2.858   3.022
 3896SOL    HW211508   4.981   2.961   3.078
 3897SOL     OW11509   4.976   3.593   2.990
 3897SOL    HW111510   5.060   3.598   2.936
 3897SOL    HW211511   4.953   3.497   3.008
 3898SOL     OW11512   3.807   3.120   2.884
 3898SOL    HW111513   3.802   3.119   2.984
 3898SOL    HW211514   3.724   3.079   2.846
 3899SOL     OW11515   4.412   3.524   3.578
 3899SOL    HW111516   4.356   3.605   3.587
 3899SOL    HW211517   4.464   3.528   3.492
 3900SOL     OW11518   5.112   3.435   2.339
 3900SOL    HW111519   5.179   3.447   2.265
 3900SOL    HW211520   5.072   3.524   2.362
 3901SOL     OW11521   3.854   3.656   3.713
 3901SOL    HW111522   3.813   3.582   3.766
 3901SOL    HW211523   3.918   3.707   3.771
 3902SOL     OW11524   5.004   2.789   2.534
 3902SOL    HW111525   5.064   2.708   2.536
 3902SOL    HW211526   5.044   2.858   2.474
 3903SOL     OW11527   4.554   3.135   3.284
 3903SOL    HW111528   4.549   3.168   3.379
 3903SOL    HW211529   4.468   3.154   3.238
 3904SOL     OW11530   4.396   3.478   2.016
 3904SOL    HW111531   4.405   3.488   1.917
 3904SOL    HW211532   4.356   3.389   2.037
 3905SOL     OW11533   4.918   3.474   1.893
 3905SOL    HW111534   4.924   3.381   1.930
 3905SOL    HW211535   4.859   3.474   1.813
 3906SOL     OW11536   4.546   2.864   3.234
 3906SOL    HW111537   4.586   2.863   3.142
 3906SOL    HW211538   4.556   2.956   3.274
 3907SOL     OW11539   4.640   2.772   2.153
 3907SOL    HW111540   4.703   2.810   2.085
 3907SOL    HW211541   4.680   2.689   2.192
 3908SOL     OW11542   4.096   3.150   3.352
 3908SOL    HW111543   4.083   3.243   3.318
 3908SOL    HW211544   4.012   3.098   3.339
 3909SOL     OW11545   4.763   2.960   2.558
 3909SOL    HW111546   4.693   2.913   2.612
 3909SOL    HW211547   4.822   2.892   2.515
 3910SOL     OW11548   4.738   2.098   2.833
 3910SOL    HW111549   4.730   2.062   2.740
 3910SOL    HW211550   4.736   2.022   2.898
 3911SOL     OW11551   4.314   3.349   2.353
 3911SOL    HW111552   4.356   3.291   2.283
 3911SOL    HW211553   4.270   3.428   2.309
 3912SOL     OW11554   3.979   3.210   2.152
 3912SOL    HW111555   3.883   3.211   2.125
 3912SOL    HW211556   3.991   3.263   2.236
 3913SOL     OW11557   3.829   2.875   3.588
 3913SOL    HW111558   3.752   2.842   3.642
 3913SOL    HW211559   3.914   2.845   3.630
 3914SOL     OW11560   4.396   2.065   3.351
 3914SOL    HW111561   4.486   2.049   3.311
 3914SOL    HW211562   4.404   2.070   3.450
 3915SOL     OW11563   3.799   2.207   1.895
 3915SOL    HW111564   3.707   2.179   1.866
 3915SOL    HW211565   3.830   2.284   1.839
 3916SOL     OW11566   5.164   2.718   3.260
 3916SOL    HW111567   5.107   2.770   3.197
 3916SOL    HW211568   5.260   2.730   3.236
 3917SOL     OW11569   3.796   2.028   2.180
 3917SOL    HW111570   3.779   2.111   2.126
 3917SOL    HW211571   3.886   1.991   2.158
 3918SOL     OW11572   4.337   2.704   3.293
 3918SOL    HW111573   4.393   2.785   3.276
 3918SOL    HW211574   4.396   2.624   3.296
 3919SOL     OW11575   4.440   2.427   3.570
 3919SOL    HW111576   4.459   2.492   3.644
 3919SOL    HW211577   4.500   2.347   3.579
 3920SOL     OW11578   4.114   3.603   3.422
 3920SOL    HW111579   4.023   3.644   3.420
 3920SOL    HW211580   4.107   3.509   3.454
 3921SOL     OW11581   4.949   2.187   2.311
 3921SOL    HW111582   5.014   2.113   2.300
 3921SOL    HW211583   4.969   2.237   2.395
 3922SOL     OW11584   4.318   2.607   2.514
 3922SOL    HW111585   4.368   2.692   2.495
 3922SOL    HW211586   4.230   2.609   2.466
 3923SOL     OW11587   4.583   3.236   1.878
 3923SOL    HW111588   4.537   3.251   1.966
 3923SOL    HW211589   4.627   3.321   1.848
 3924SOL     OW11590   4.385   3.652   2.815
 3924SOL    HW111591   4.339   3.740   2.802
 3924SOL    HW211592   4.484   3.664   2.808
 3925SOL     OW11593   4.583   2.818   2.723
 3925SOL    HW111594   4.637   2.749   2.771
 3925SOL    HW211595   4.551   2.887   2.789
 3926SOL     OW11596   4.807   2.846   1.949
 3926SOL    HW111597   4.784   2.899   1.867
 3926SOL    HW211598   4.888   2.790   1.930
 3927SOL     OW11599   3.945   3.176   3.706
 3927SOL    HW111600   3.880   3.103   3.685
 3927SOL    HW211601   3.949   3.190   3.804
 3928SOL     OW11602   3.803   3.102   2.515
 3928SOL    HW111603   3.802   3.055   2.603
 3928SOL    HW211604   3.885   3.074   2.464
 3929SOL     OW11605   4.396   3.253   3.486
 3929SOL    HW111606   4.318   3.203   3.524
 3929SOL    HW211607   4.393   3.348   3.517
 3930SOL     OW11608   4.041   2.409   3.142
 3930SOL    HW111609   4.079   2.350   3.214
 3930SOL    HW211610   4.081   2.383   3.054
 3931SOL     OW11611   4.536   3.448   2.549
 3931SOL    HW111612   4.568   3.458   2.455
 3931SOL    HW211613   4.457   3.386   2.551
 3932SOL     OW11614   4.725   1.896   3.016
 3932SOL    HW111615   4.662   1.824   2.985
 3932SOL    HW211616   4.818   1.860   3.016
 3933SOL     OW11617   4.494   3.192   2.163
 3933SOL    HW111618   4.448   3.105   2.180
 3933SOL    HW211619   4.585   3.189   2.204
 3934SOL     OW11620   4.342   3.429   3.146
 3934SOL    HW111621   4.337   3.511   3.203
 3934SOL    HW211622   4.431   3.426   3.101
 3935SOL     OW11623   5.076   1.914   2.030
 3935SOL    HW111624   5.111   1.873   1.946
 3935SOL    HW211625   4.986   1.876   2.050
 3936SOL     OW11626   3.763   2.939   2.162
 3936SOL    HW111627   3.862   2.928   2.153
 3936SOL    HW211628   3.723   2.853   2.194
 3937SOL     OW11629   4.599   3.508   2.199
 3937SOL    HW111630   4.522   3.473   2.145
 3937SOL    HW211631   4.567   3.579   2.261
 3938SOL     OW11632   3.954   2.490   3.837
 3938SOL    HW111633   3.861   2.488   3.874
 3938SOL    HW211634   3.955   2.451   3.745
 3939SOL     OW11635   3.949   2.137   4.720
 3939SOL    HW111636   3.984   2.120   4.812
 3939SOL    HW211637   3.861   2.092   4.708
 3940SOL     OW11638   3.743   2.230   4.371
 3940SOL    HW111639   3.661   2.273   4.410
 3940SOL    HW211640   3.715   2.157   4.308
 3941SOL     OW11641   4.293   3.137   4.889
 3941SOL    HW111642   4.200   3.130   4.852
 3941SOL    HW211643   4.304   3.226   4.933
 3942SOL     OW11644   4.859   2.565   4.441
 3942SOL    HW111645   4.916   2.643   4.416
 3942SOL    HW211646   4.799   2.591   4.517
 3943SOL     OW11647   4.492   3.006   4.747
 3943SOL    HW111648   4.414   3.023   4.807
 3943SOL    HW211649   4.526   3.093   4.711
 3944SOL     OW11650   4.409   2.874   4.389
 3944SOL    HW111651   4.478   2.858   4.459
 3944SOL    HW211652   4.336   2.931   4.427
 3945SOL     OW11653   4.059   3.297   4.785
 3945SOL    HW111654   3.981   3.266   4.732
 3945SOL    HW211655   4.117   3.355   4.728
 3946SOL     OW11656   3.955   3.575   4.207
 3946SOL    HW111657   3.989   3.652   4.261
 3946SOL    HW211658   3.999   3.575   4.117
 3947SOL     OW11659   3.954   3.296   4.262
 3947SOL    HW111660   3.928   3.392   4.262
 3947SOL    HW211661   3.883   3.242   4.307
 3948SOL     OW11662   3.964   2.953   4.610
 3948SOL    HW111663   3.978   2.869   4.662
 3948SOL    HW211664   3.909   3.017   4.665
 3949SOL     OW11665   4.344   3.648   5.163
 3949SOL    HW111666   4.252   3.631   5.198
 3949SOL    HW211667   4.372   3.740   5.189
 3950SOL     OW11668   4.330   2.826   3.847
 3950SOL    HW111669   4.337   2.910   3.793
 3950SOL    HW211670   4.376   2.839   3.935
 3951SOL     OW11671   3.846   2.505   4.287
 3951SOL    HW111672   3.801   2.417   4.304
 3951SOL    HW211673   3.845   2.559   4.371
 3952SOL     OW11674   3.751   3.458   3.841
 3952SOL    HW111675   3.732   3.362   3.862
 3952SOL    HW211676   3.718   3.516   3.916
 3953SOL     OW11677   4.337   3.227   4.450
 3953SOL    HW111678   4.288   3.140   4.459
 3953SOL    HW211679   4.314   3.270   4.363
 3954SOL     OW11680   4.533   1.866   4.226
 3954SOL    HW111681   4.573   1.957   4.217
 3954SOL    HW211682   4.433   1.874   4.232
 3955SOL     OW11683   3.921   2.838   4.988
 3955SOL    HW111684   4.010   2.793   4.974
 3955SOL    HW211685   3.848   2.773   4.969
 3956SOL     OW11686   4.322   2.591   3.994
 3956SOL    HW111687   4.346   2.660   3.926
 3956SOL    HW211688   4.244   2.624   4.048
 3957SOL     OW11689   5.005   2.207   4.668
 3957SOL    HW111690   4.919   2.157   4.655
 3957SOL    HW211691   5.067   2.153   4.724
 3958SOL     OW11692   4.715   2.272   4.966
 3958SOL    HW111693   4.638   2.306   5.020
 3958SOL    HW211694   4.681   2.221   4.887
 3959SOL     OW11695   4.765   2.563   4.153
 3959SOL    HW111696   4.791   2.559   4.249
 3959SOL    HW211697   4.680   2.512   4.139
 3960SOL     OW11698   3.800   2.673   4.513
 3960SOL    HW111699   3.899   2.661   4.522
 3960SOL    HW211700   3.776   2.768   4.534
 3961SOL     OW11701   4.589   2.210   3.919
 3961SOL    HW111702   4.648   2.273   3.870
 3961SOL    HW211703   4.608   2.116   3.890
 3962SOL     OW11704   4.274   2.058   4.609
 3962SOL    HW111705   4.269   2.053   4.709
 3962SOL    HW211706   4.276   2.154   4.580
 3963SOL     OW11707   4.732   3.318   4.201
 3963SOL    HW111708   4.686   3.390   4.149
 3963SOL    HW211709   4.728   3.338   4.299
 3964SOL     OW11710   4.075   3.663   4.577
 3964SOL    HW111711   4.125   3.577   4.583
 3964SOL    HW211712   4.140   3.740   4.574
 3965SOL     OW11713   4.045   2.805   3.966
 3965SOL    HW111714   4.127   2.844   3.924
 3965SOL    HW211715   4.018   2.723   3.917
 3966SOL     OW11716   4.835   3.638   3.961
 3966SOL    HW111717   4.775   3.576   4.011
 3966SOL    HW211718   4.866   3.594   3.876
 3967SOL     OW11719   4.188   3.605   4.047
 3967SOL    HW111720   4.221   3.644   4.133
 3967SOL    HW211721   4.264   3.598   3.982
 3968SOL     OW11722   3.973   3.647   4.965
 3968SOL    HW111723   4.030   3.582   5.015
 3968SOL    HW211724   3.957   3.614   4.872
 3969SOL     OW11725   4.664   3.560   4.628
 3969SOL    HW111726   4.744   3.503   4.649
 3969SOL    HW211727   4.615   3.520   4.551
 3970SOL     OW11728   4.106   2.562   4.204
 3970SOL    HW111729   4.151   2.472   4.201
 3970SOL    HW211730   4.012   2.551   4.237
 3971SOL     OW11731   4.338   1.984   3.841
 3971SOL    HW111732   4.436   1.962   3.848
 3971SOL    HW211733   4.307   1.967   3.748
 3972SOL     OW11734   4.527   3.264   4.648
 3972SOL    HW111735   4.617   3.278   4.606
 3972SOL    HW211736   4.456   3.266   4.577
 3973SOL     OW11737   4.646   2.365   4.623
 3973SOL    HW111738   4.621   2.356   4.527
 3973SOL    HW211739   4.694   2.283   4.654
 3974SOL     OW11740   4.263   1.926   4.236
 3974SOL    HW111741   4.182   1.927   4.294
 3974SOL    HW211742   4.266   2.009   4.181
 3975SOL     OW11743   4.021   1.897   3.895
 3975SOL    HW111744   4.070   1.981   3.874
 3975SOL    HW211745   4.083   1.832   3.940
 3976SOL     OW11746   4.659   2.098   4.204
 3976SOL    HW111747   4.611   2.139   4.126
 3976SOL    HW211748   4.758   2.096   4.185
 3977SOL     OW11749   4.951   3.432   4.517
 3977SOL    HW111750   4.972   3.506   4.452
 3977SOL    HW211751   5.019   3.432   4.590
 3978SOL     OW11752   4.183   3.014   4.465
 3978SOL    HW111753   4.112   2.987   4.530
 3978SOL    HW211754   4.157   2.986   4.372
 3979SOL     OW11755   4.995   3.659   4.315
 3979SOL    HW111756   5.039   3.723   4.251
 3979SOL    HW211757   4.945   3.711   4.385
 3980SOL     OW11758   4.756   2.411   3.740
 3980SOL    HW111759   4.715   2.493   3.701
 3980SOL    HW211760   4.820   2.437   3.813
 3981SOL     OW11761   4.285   2.084   4.871
 3981SOL    HW111762   4.323   2.000   4.908
 3981SOL    HW211763   4.197   2.103   4.915
 3982SOL     OW11764   4.590   2.316   4.366
 3982SOL    HW111765   4.558   2.388   4.304
 3982SOL    HW211766   4.614   2.235   4.313
 3983SOL     OW11767   4.741   1.901   4.477
 3983SOL    HW111768   4.669   1.906   4.408
 3983SOL    HW211769   4.717   1.832   4.546
 3984SOL     OW11770   4.212   3.247   3.898
 3984SOL    HW111771   4.125   3.232   3.945
 3984SOL    HW211772   4.195   3.273   3.803
 3985SOL     OW11773   5.388   3.142   4.381
 3985SOL    HW111774   5.487   3.150   4.395
 3985SOL    HW211775   5.343   3.226   4.412
 3986SOL     OW11776   4.251   2.118   4.052
 3986SOL    HW111777   4.278   2.059   3.977
 3986SOL    HW211778   4.251   2.213   4.021
 3987SOL     OW11779   5.316   3.491   5.349
 3987SOL    HW111780   5.343   3.525   5.259
 3987SOL    HW211781   5.395   3.453   5.395
 3988SOL     OW11782   4.835   3.057   4.824
 3988SOL    HW111783   4.795   3.101   4.905
 3988SOL    HW211784   4.794   3.094   4.741
 3989SOL     OW11785   4.429   2.912   4.092
 3989SOL    HW111786   4.415   2.919   4.191
 3989SOL    HW211787   4.513   2.861   4.074
 3990SOL     OW11788   4.134   2.675   4.975
 3990SOL    HW111789   4.220   2.687   5.025
 3990SOL    HW211790   4.092   2.588   5.002
 3991SOL     OW11791   4.091   2.962   4.225
 3991SOL    HW111792   4.084   3.045   4.169
 3991SOL    HW211793   4.095   2.882   4.165
 3992SOL     OW11794   4.290   2.399   4.589
 3992SOL    HW111795   4.302   2.465   4.515
 3992SOL    HW211796   4.336   2.433   4.672
 3993SOL     OW11797   4.976   3.210   4.112
 3993SOL    HW111798   5.026   3.287   4.152
 3993SOL    HW211799   4.881   3.212   4.144
 3994SOL     OW11800   4.078   3.372   5.053
 3994SOL    HW111801   4.057   3.328   4.966
 3994SOL    HW211802   4.175   3.398   5.056
 3995SOL     OW11803   4.297   2.732   4.753
 3995SOL    HW111804   4.341   2.821   4.744
 3995SOL    HW211805   4.234   2.732   4.830
 3996SOL     OW11806   5.084   2.724   4.769
 3996SOL    HW111807   5.009   2.724   4.703
 3996SOL    HW211808   5.121   2.632   4.778
 3997SOL     OW11809   4.933   2.387   3.999
 3997SOL    HW111810   4.946   2.303   4.053
 3997SOL    HW211811   4.904   2.461   4.059
 3998SOL     OW11812   4.031   2.075   4.955
 3998SOL    HW111813   4.008   2.112   5.045
 3998SOL    HW211814   4.001   1.980   4.949
 3999SOL     OW11815   3.761   3.172   5.006
 3999SOL    HW111816   3.814   3.123   5.074
 3999SOL    HW211817   3.783   3.270   5.011
 4000SOL     OW11818   4.456   2.496   4.788
 4000SOL    HW111819   4.515   2.470   4.712
 4000SOL    HW211820   4.428   2.592   4.777
 4001SOL     OW11821   4.031   1.925   4.342
 4001SOL    HW111822   4.020   2.019   4.375
 4001SOL    HW211823   4.026   1.862   4.419
 4002SOL     OW11824   5.346   2.229   4.098
 4002SOL    HW111825   5.348   2.153   4.162
 4002SOL    HW211826   5.298   2.306   4.138
 4003SOL     OW11827   4.747   2.628   4.690
 4003SOL    HW111828   4.762   2.649   4.786
 4003SOL    HW211829   4.717   2.533   4.681
 4004SOL     OW11830   5.027   2.700   3.766
 4004SOL    HW111831   5.061   2.607   3.781
 4004SOL    HW211832   5.045   2.727   3.671
 4005SOL     OW11833   4.792   3.195   4.573
 4005SOL    HW111834   4.799   3.111   4.518
 4005SOL    HW211835   4.854   3.264   4.537
 4006SOL     OW11836   4.043   2.672   4.673
 4006SOL    HW111837   4.136   2.708   4.678
 4006SOL    HW211838   4.037   2.587   4.725
 4007SOL     OW11839   4.063   2.371   4.730
 4007SOL    HW111840   4.011   2.288   4.713
 4007SOL    HW211841   4.140   2.376   4.666
 4008SOL     OW11842   4.884   2.069   5.201
 4008SOL    HW111843   4.884   2.133   5.278
 4008SOL    HW211844   4.912   2.117   5.118
 4009SOL     OW11845   3.732   3.188   3.924
 4009SOL    HW111846   3.639   3.209   3.893
 4009SOL    HW211847   3.742   3.089   3.937
 4010SOL     OW11848   3.812   3.663   4.651
 4010SOL    HW111849   3.770   3.577   4.624
 4010SOL    HW211850   3.906   3.666   4.617
 4011SOL     OW11851   4.228   3.430   4.634
 4011SOL    HW111852   4.294   3.504   4.643
 4011SOL    HW211853   4.272   3.351   4.592
 4012SOL     OW11854   4.726   2.658   4.962
 4012SOL    HW111855   4.767   2.626   5.048
 4012SOL    HW211856   4.630   2.631   4.959
 4013SOL     OW11857   3.764   2.406   4.838
 4013SOL    HW111858   3.849   2.373   4.797
 4013SOL    HW211859   3.777   2.421   4.936
 4014SOL     OW11860   4.539   2.434   4.049
 4014SOL    HW111861   4.546   2.345   4.003
 4014SOL    HW211862   4.445   2.468   4.041
 4015SOL     OW11863   4.395   2.326   4.993
 4015SOL    HW111864   4.361   2.237   4.963
 4015SOL    HW211865   4.421   2.380   4.913
 4016SOL     OW11866   4.654   3.540   5.189
 4016SOL    HW111867   4.630   3.522   5.094
 4016SOL    HW211868   4.684   3.634   5.199
 4017SOL     OW11869   4.197   2.362   3.915
 4017SOL    HW111870   4.258   2.442   3.919
 4017SOL    HW211871   4.102   2.393   3.922
 4018SOL     OW11872   5.071   2.921   4.958
 4018SOL    HW111873   5.095   2.858   4.884
 4018SOL    HW211874   4.981   2.961   4.940
 4019SOL     OW11875   4.976   3.593   4.852
 4019SOL    HW111876   5.060   3.598   4.798
 4019SOL    HW211877   4.953   3.497   4.870
 4020SOL     OW11878   3.807   3.120   4.746
 4020SOL    HW111879   3.802   3.119   4.846
 4020SOL    HW211880   3.724   3.079   4.708
 4021SOL     OW11881   5.112   3.435   4.201
 4021SOL    HW111882   5.179   3.447   4.127
 4021SOL    HW211883   5.072   3.524   4.224
 4022SOL     OW11884   5.004   2.789   4.396
 4022SOL    HW111885   5.064   2.708   4.398
 4022SOL    HW211886   5.044   2.858   4.336
 4023SOL     OW11887   4.396   3.478   3.878
 4023SOL    HW111888   4.405   3.488   3.779
 4023SOL    HW211889   4.356   3.389   3.899
 4024SOL     OW11890   3.987   2.188   4.444
 4024SOL    HW111891   3.908   2.239   4.410
 4024SOL    HW211892   3.978   2.173   4.542
 4025SOL     OW11893   4.918   3.474   3.755
 4025SOL    HW111894   4.924   3.381   3.792
 4025SOL    HW211895   4.859   3.474   3.675
 4026SOL     OW11896   4.546   2.864   5.096
 4026SOL    HW111897   4.586   2.863   5.004
 4026SOL    HW211898   4.556   2.956   5.136
 4027SOL     OW11899   4.640   2.772   4.015
 4027SOL    HW111900   4.703   2.810   3.947
 4027SOL    HW211901   4.680   2.689   4.054
 4028SOL     OW11902   4.763   2.960   4.420
 4028SOL    HW111903   4.693   2.913   4.474
 4028SOL    HW211904   4.822   2.892   4.377
 4029SOL     OW11905   4.738   2.098   4.695
 4029SOL    HW111906   4.730   2.062   4.602
 4029SOL    HW211907   4.736   2.022   4.760
 4030SOL     OW11908   4.314   3.349   4.215
 4030SOL    HW111909   4.356   3.291   4.145
 4030SOL    HW211910   4.270   3.428   4.171
 4031SOL     OW11911   3.979   3.210   4.014
 4031SOL    HW111912   3.883   3.211   3.987
 4031SOL    HW211913   3.991   3.263   4.098
 4032SOL     OW11914   3.799   2.207   3.757
 4032SOL    HW111915   3.707   2.179   3.728
 4032SOL    HW211916   3.830   2.284   3.701
 4033SOL     OW11917   3.796   2.028   4.042
 4033SOL    HW111918   3.779   2.111   3.988
 4033SOL    HW211919   3.886   1.991   4.020
 4034SOL     OW11920   4.949   2.187   4.173
 4034SOL    HW111921   5.014   2.113   4.162
 4034SOL    HW211922   4.969   2.237   4.257
 4035SOL     OW11923   4.318   2.607   4.376
 4035SOL    HW111924   4.368   2.692   4.357
 4035SOL    HW211925   4.230   2.609   4.328
 4036SOL     OW11926   4.583   3.236   3.740
 4036SOL    HW111927   4.537   3.251   3.828
 4036SOL    HW211928   4.627   3.321   3.710
 4037SOL     OW11929   4.385   3.652   4.677
 4037SOL    HW111930   4.339   3.740   4.664
 4037SOL    HW211931   4.484   3.664   4.670
 4038SOL     OW11932   4.583   2.818   4.585
 4038SOL    HW111933   4.637   2.749   4.633
 4038SOL    HW211934   4.551   2.887   4.651
 4039SOL     OW11935   4.807   2.846   3.811
 4039SOL    HW111936   4.784   2.899   3.729
 4039SOL    HW211937   4.888   2.790   3.792
 4040SOL     OW11938   3.803   3.102   4.377
 4040SOL    HW111939   3.802   3.055   4.465
 4040SOL    HW211940   3.885   3.074   4.326
 4041SOL     OW11941   4.152   2.286   4.244
 4041SOL    HW111942   4.182   2.214   4.182
 4041SOL    HW211943   4.113   2.246   4.327
 4042SOL     OW11944   4.536   3.448   4.411
 4042SOL    HW111945   4.568   3.458   4.317
 4042SOL    HW211946   4.457   3.386   4.413
 4043SOL     OW11947   4.725   1.896   4.878
 4043SOL    HW111948   4.662   1.824   4.847
 4043SOL    HW211949   4.818   1.860   4.878
 4044SOL     OW11950   4.494   3.192   4.025
 4044SOL    HW111951   4.448   3.105   4.042
 4044SOL    HW211952   4.585   3.189   4.066
 4045SOL     OW11953   5.076   1.914   3.892
 4045SOL    HW111954   5.111   1.873   3.808
 4045SOL    HW211955   4.986   1.876   3.912
 4046SOL     OW11956   3.763   2.939   4.024
 4046SOL    HW111957   3.862   2.928   4.015
 4046SOL    HW211958   3.723   2.853   4.056
 4047SOL     OW11959   4.599   3.508   4.061
 4047SOL    HW111960   4.522   3.473   4.007
 4047SOL    HW211961   4.567   3.579   4.123
 4048SOL     OW11962   3.954   4.352   0.113
 4048SOL    HW111963   3.861   4.350   0.150
 4048SOL    HW211964   3.955   4.313   0.021
 4049SOL     OW11965   3.949   3.999   0.996
 4049SOL    HW111966   3.984   3.982   1.088
 4049SOL    HW211967   3.861   3.954   0.984
 4050SOL     OW11968   3.743   4.092   0.647
 4050SOL    HW111969   3.661   4.135   0.686
 4050SOL    HW211970   3.715   4.019   0.584
 4051SOL     OW11971   4.293   4.999   1.165
 4051SOL    HW111972   4.200   4.992   1.128
 4051SOL    HW211973   4.304   5.088   1.209
 4052SOL     OW11974   4.859   4.427   0.717
 4052SOL    HW111975   4.916   4.505   0.692
 4052SOL    HW211976   4.799   4.453   0.793
 4053SOL     OW11977   4.492   4.868   1.023
 4053SOL    HW111978   4.414   4.885   1.083
 4053SOL    HW211979   4.526   4.955   0.987
 4054SOL     OW11980   4.574   4.522   1.823
 4054SOL    HW111981   4.570   4.598   1.888
 4054SOL    HW211982   4.596   4.558   1.732
 4055SOL     OW11983   4.409   4.736   0.665
 4055SOL    HW111984   4.478   4.720   0.735
 4055SOL    HW211985   4.336   4.793   0.703
 4056SOL     OW11986   4.410   4.885   1.803
 4056SOL    HW111987   4.470   4.964   1.817
 4056SOL    HW211988   4.324   4.916   1.762
 4057SOL     OW11989   4.059   5.159   1.061
 4057SOL    HW111990   3.981   5.128   1.008
 4057SOL    HW211991   4.117   5.217   1.004
 4058SOL     OW11992   4.162   4.116   1.499
 4058SOL    HW111993   4.244   4.060   1.508
 4058SOL    HW211994   4.081   4.058   1.503
 4059SOL     OW11995   3.964   4.815   0.886
 4059SOL    HW111996   3.978   4.731   0.938
 4059SOL    HW211997   3.909   4.879   0.941
 4060SOL     OW11998   4.330   4.688   0.123
 4060SOL    HW111999   4.337   4.772   0.069
 4060SOL    HW212000   4.376   4.701   0.211
 4061SOL     OW12001   3.846   4.367   0.563
 4061SOL    HW112002   3.801   4.279   0.580
 4061SOL    HW212003   3.845   4.421   0.647
 4062SOL     OW12004   3.837   4.461   1.597
 4062SOL    HW112005   3.925   4.448   1.642
 4062SOL    HW212006   3.824   4.558   1.575
 4063SOL     OW12007   5.017   4.952   1.423
 4063SOL    HW112008   5.054   4.879   1.365
 4063SOL    HW212009   5.069   4.957   1.508
 4064SOL     OW12010   4.533   3.728   0.502
 4064SOL    HW112011   4.573   3.819   0.493
 4064SOL    HW212012   4.433   3.736   0.508
 4065SOL     OW12013   3.921   4.700   1.264
 4065SOL    HW112014   4.010   4.655   1.250
 4065SOL    HW212015   3.848   4.635   1.245
 4066SOL     OW12016   4.041   3.975   1.801
 4066SOL    HW112017   4.112   4.046   1.807
 4066SOL    HW212018   3.953   4.014   1.829
 4067SOL     OW12019   4.322   4.453   0.270
 4067SOL    HW112020   4.346   4.522   0.202
 4067SOL    HW212021   4.244   4.486   0.324
 4068SOL     OW12022   5.005   4.069   0.944
 4068SOL    HW112023   4.919   4.019   0.931
 4068SOL    HW212024   5.067   4.015   1.000
 4069SOL     OW12025   4.531   4.329   1.465
 4069SOL    HW112026   4.484   4.326   1.554
 4069SOL    HW212027   4.480   4.274   1.399
 4070SOL     OW12028   4.697   4.614   1.572
 4070SOL    HW112029   4.743   4.530   1.543
 4070SOL    HW212030   4.641   4.648   1.497
 4071SOL     OW12031   4.715   4.134   1.242
 4071SOL    HW112032   4.638   4.168   1.296
 4071SOL    HW212033   4.681   4.083   1.163
 4072SOL     OW12034   4.765   4.425   0.429
 4072SOL    HW112035   4.791   4.421   0.525
 4072SOL    HW212036   4.680   4.374   0.415
 4073SOL     OW12037   3.800   4.535   0.789
 4073SOL    HW112038   3.899   4.523   0.798
 4073SOL    HW212039   3.776   4.630   0.810
 4074SOL     OW12040   4.589   4.072   0.195
 4074SOL    HW112041   4.648   4.135   0.146
 4074SOL    HW212042   4.608   3.978   0.166
 4075SOL     OW12043   4.274   3.920   0.885
 4075SOL    HW112044   4.269   3.915   0.985
 4075SOL    HW212045   4.276   4.016   0.856
 4076SOL     OW12046   4.045   4.667   0.242
 4076SOL    HW112047   4.127   4.706   0.200
 4076SOL    HW212048   4.018   4.585   0.193
 4077SOL     OW12049   3.926   4.009   1.498
 4077SOL    HW112050   3.846   4.069   1.485
 4077SOL    HW212051   3.916   3.960   1.584
 4078SOL     OW12052   4.106   4.424   0.480
 4078SOL    HW112053   4.151   4.334   0.477
 4078SOL    HW212054   4.012   4.413   0.513
 4079SOL     OW12055   4.505   3.988   1.749
 4079SOL    HW112056   4.572   3.927   1.792
 4079SOL    HW212057   4.432   4.007   1.814
 4080SOL     OW12058   4.527   5.126   0.924
 4080SOL    HW112059   4.617   5.140   0.882
 4080SOL    HW212060   4.456   5.128   0.853
 4081SOL     OW12061   4.646   4.227   0.899
 4081SOL    HW112062   4.621   4.218   0.803
 4081SOL    HW212063   4.694   4.145   0.930
 4082SOL     OW12064   4.263   3.788   0.512
 4082SOL    HW112065   4.182   3.789   0.570
 4082SOL    HW212066   4.266   3.871   0.457
 4083SOL     OW12067   4.021   3.759   0.171
 4083SOL    HW112068   4.070   3.843   0.150
 4083SOL    HW212069   4.083   3.694   0.216
 4084SOL     OW12070   4.659   3.960   0.480
 4084SOL    HW112071   4.611   4.001   0.402
 4084SOL    HW212072   4.758   3.958   0.461
 4085SOL     OW12073   4.800   4.407   1.464
 4085SOL    HW112074   4.720   4.346   1.467
 4085SOL    HW212075   4.881   4.354   1.440
 4086SOL     OW12076   4.951   5.294   0.793
 4086SOL    HW112077   4.972   5.368   0.728
 4086SOL    HW212078   5.019   5.294   0.866
 4087SOL     OW12079   4.183   4.876   0.741
 4087SOL    HW112080   4.112   4.849   0.806
 4087SOL    HW212081   4.157   4.848   0.648
 4088SOL     OW12082   4.756   4.273   0.016
 4088SOL    HW112083   4.715   4.355  -0.023
 4088SOL    HW212084   4.820   4.299   0.089
 4089SOL     OW12085   3.802   4.280   1.386
 4089SOL    HW112086   3.894   4.279   1.345
 4089SOL    HW212087   3.796   4.354   1.453
 4090SOL     OW12088   4.285   3.946   1.147
 4090SOL    HW112089   4.323   3.862   1.184
 4090SOL    HW212090   4.197   3.965   1.191
 4091SOL     OW12091   4.590   4.178   0.642
 4091SOL    HW112092   4.558   4.250   0.580
 4091SOL    HW212093   4.614   4.097   0.589
 4092SOL     OW12094   4.741   3.763   0.753
 4092SOL    HW112095   4.669   3.768   0.684
 4092SOL    HW212096   4.717   3.694   0.822
 4093SOL     OW12097   4.251   3.980   0.328
 4093SOL    HW112098   4.278   3.921   0.253
 4093SOL    HW212099   4.251   4.075   0.297
 4094SOL     OW12100   4.639   3.813   1.402
 4094SOL    HW112101   4.664   3.793   1.307
 4094SOL    HW212102   4.711   3.869   1.444
 4095SOL     OW12103   4.704   4.840   1.719
 4095SOL    HW112104   4.605   4.846   1.729
 4095SOL    HW212105   4.727   4.760   1.663
 4096SOL     OW12106   4.429   4.774   0.368
 4096SOL    HW112107   4.415   4.781   0.467
 4096SOL    HW212108   4.513   4.723   0.350
 4097SOL     OW12109   4.134   4.537   1.251
 4097SOL    HW112110   4.220   4.549   1.301
 4097SOL    HW212111   4.092   4.450   1.278
 4098SOL     OW12112   4.998   4.110   1.262
 4098SOL    HW112113   5.019   4.184   1.326
 4098SOL    HW212114   4.909   4.127   1.219
 4099SOL     OW12115   4.091   4.824   0.501
 4099SOL    HW112116   4.084   4.907   0.445
 4099SOL    HW212117   4.095   4.744   0.441
 4100SOL     OW12118   4.290   4.261   0.865
 4100SOL    HW112119   4.302   4.327   0.791
 4100SOL    HW212120   4.336   4.295   0.948
 4101SOL     OW12121   4.976   5.072   0.388
 4101SOL    HW112122   5.026   5.149   0.428
 4101SOL    HW212123   4.881   5.074   0.420
 4102SOL     OW12124   4.126   4.475   1.598
 4102SOL    HW112125   4.194   4.530   1.551
 4102SOL    HW212126   4.166   4.387   1.625
 4103SOL     OW12127   4.737   3.829   1.770
 4103SOL    HW112128   4.743   3.914   1.718
 4103SOL    HW212129   4.769   3.753   1.713
 4104SOL     OW12130   4.228   3.774   1.740
 4104SOL    HW112131   4.186   3.717   1.670
 4104SOL    HW212132   4.162   3.843   1.772
 4105SOL     OW12133   4.297   4.594   1.029
 4105SOL    HW112134   4.341   4.683   1.020
 4105SOL    HW212135   4.234   4.594   1.106
 4106SOL     OW12136   5.084   4.586   1.045
 4106SOL    HW112137   5.009   4.586   0.979
 4106SOL    HW212138   5.121   4.494   1.054
 4107SOL     OW12139   4.933   4.249   0.275
 4107SOL    HW112140   4.946   4.165   0.329
 4107SOL    HW212141   4.904   4.323   0.335
 4108SOL     OW12142   4.031   3.937   1.231
 4108SOL    HW112143   4.008   3.974   1.321
 4108SOL    HW212144   4.001   3.842   1.225
 4109SOL     OW12145   4.456   4.358   1.064
 4109SOL    HW112146   4.515   4.332   0.988
 4109SOL    HW212147   4.428   4.454   1.053
 4110SOL     OW12148   4.031   3.787   0.618
 4110SOL    HW112149   4.020   3.881   0.651
 4110SOL    HW212150   4.026   3.724   0.695
 4111SOL     OW12151   5.346   4.091   0.374
 4111SOL    HW112152   5.348   4.015   0.438
 4111SOL    HW212153   5.298   4.168   0.414
 4112SOL     OW12154   4.747   4.490   0.966
 4112SOL    HW112155   4.762   4.511   1.062
 4112SOL    HW212156   4.717   4.395   0.957
 4113SOL     OW12157   4.074   4.622   1.804
 4113SOL    HW112158   4.150   4.666   1.852
 4113SOL    HW212159   4.109   4.575   1.722
 4114SOL     OW12160   5.027   4.562   0.042
 4114SOL    HW112161   5.061   4.469   0.057
 4114SOL    HW212162   5.045   4.589  -0.053
 4115SOL     OW12163   4.043   4.534   0.949
 4115SOL    HW112164   4.136   4.570   0.954
 4115SOL    HW212165   4.037   4.449   1.001
 4116SOL     OW12166   4.063   4.233   1.006
 4116SOL    HW112167   4.011   4.150   0.989
 4116SOL    HW212168   4.140   4.238   0.942
 4117SOL     OW12169   4.862   4.104   1.678
 4117SOL    HW112170   4.817   4.167   1.742
 4117SOL    HW212171   4.955   4.135   1.661
 4118SOL     OW12172   4.884   3.931   1.477
 4118SOL    HW112173   4.884   3.995   1.554
 4118SOL    HW212174   4.912   3.979   1.394
 4119SOL     OW12175   4.726   4.520   1.238
 4119SOL    HW112176   4.767   4.488   1.324
 4119SOL    HW212177   4.630   4.493   1.235
 4120SOL     OW12178   3.764   4.268   1.114
 4120SOL    HW112179   3.849   4.235   1.073
 4120SOL    HW212180   3.777   4.283   1.212
 4121SOL     OW12181   3.913   4.244   1.722
 4121SOL    HW112182   3.972   4.204   1.652
 4121SOL    HW212183   3.855   4.315   1.681
 4122SOL     OW12184   4.539   4.296   0.325
 4122SOL    HW112185   4.546   4.207   0.279
 4122SOL    HW212186   4.445   4.330   0.317
 4123SOL     OW12187   4.395   4.188   1.269
 4123SOL    HW112188   4.361   4.099   1.239
 4123SOL    HW212189   4.421   4.242   1.189
 4124SOL     OW12190   4.197   4.224   0.191
 4124SOL    HW112191   4.258   4.304   0.195
 4124SOL    HW212192   4.102   4.255   0.198
 4125SOL     OW12193   3.883   4.861   1.466
 4125SOL    HW112194   3.905   4.800   1.542
 4125SOL    HW212195   3.893   4.812   1.380
 4126SOL     OW12196   5.071   4.783   1.234
 4126SOL    HW112197   5.095   4.720   1.160
 4126SOL    HW212198   4.981   4.823   1.216
 4127SOL     OW12199   3.807   4.982   1.022
 4127SOL    HW112200   3.802   4.981   1.122
 4127SOL    HW212201   3.724   4.941   0.984
 4128SOL     OW12202   4.627   3.810   0.133
 4128SOL    HW112203   4.678   3.811   0.047
 4128SOL    HW212204   4.683   3.768   0.204
 4129SOL     OW12205   5.004   4.651   0.672
 4129SOL    HW112206   5.064   4.570   0.674
 4129SOL    HW212207   5.044   4.720   0.612
 4130SOL     OW12208   4.554   4.997   1.422
 4130SOL    HW112209   4.549   5.030   1.517
 4130SOL    HW212210   4.468   5.016   1.376
 4131SOL     OW12211   3.987   4.050   0.720
 4131SOL    HW112212   3.908   4.101   0.686
 4131SOL    HW212213   3.978   4.035   0.818
 4132SOL     OW12214   4.546   4.726   1.372
 4132SOL    HW112215   4.586   4.725   1.280
 4132SOL    HW212216   4.556   4.818   1.412
 4133SOL     OW12217   4.640   4.634   0.291
 4133SOL    HW112218   4.703   4.672   0.223
 4133SOL    HW212219   4.680   4.551   0.330
 4134SOL     OW12220   4.096   5.012   1.490
 4134SOL    HW112221   4.083   5.105   1.456
 4134SOL    HW212222   4.012   4.960   1.477
 4135SOL     OW12223   4.763   4.822   0.696
 4135SOL    HW112224   4.693   4.775   0.750
 4135SOL    HW212225   4.822   4.754   0.653
 4136SOL     OW12226   4.738   3.960   0.971
 4136SOL    HW112227   4.730   3.924   0.878
 4136SOL    HW212228   4.736   3.884   1.036
 4137SOL     OW12229   3.829   4.737   1.726
 4137SOL    HW112230   3.752   4.704   1.780
 4137SOL    HW212231   3.914   4.707   1.768
 4138SOL     OW12232   4.396   3.927   1.489
 4138SOL    HW112233   4.486   3.911   1.449
 4138SOL    HW212234   4.404   3.932   1.588
 4139SOL     OW12235   5.164   4.580   1.398
 4139SOL    HW112236   5.107   4.632   1.335
 4139SOL    HW212237   5.260   4.592   1.374
 4140SOL     OW12238   3.796   3.890   0.318
 4140SOL    HW112239   3.779   3.973   0.264
 4140SOL    HW212240   3.886   3.853   0.296
 4141SOL     OW12241   4.337   4.566   1.431
 4141SOL    HW112242   4.393   4.647   1.414
 4141SOL    HW212243   4.396   4.486   1.434
 4142SOL     OW12244   4.440   4.289   1.708
 4142SOL    HW112245   4.459   4.354   1.782
 4142SOL    HW212246   4.500   4.209   1.717
 4143SOL     OW12247   5.174   4.944   1.633
 4143SOL    HW112248   5.165   4.934   1.732
 4143SOL    HW212249   5.270   4.937   1.607
 4144SOL     OW12250   4.949   4.049   0.449
 4144SOL    HW112251   5.014   3.975   0.438
 4144SOL    HW212252   4.969   4.099   0.533
 4145SOL     OW12253   4.318   4.469   0.652
 4145SOL    HW112254   4.368   4.554   0.633
 4145SOL    HW212255   4.230   4.471   0.604
 4146SOL     OW12256   4.583   4.680   0.861
 4146SOL    HW112257   4.637   4.611   0.909
 4146SOL    HW212258   4.551   4.749   0.927
 4147SOL     OW12259   4.807   4.708   0.087
 4147SOL    HW112260   4.784   4.761   0.005
 4147SOL    HW212261   4.888   4.652   0.068
 4148SOL     OW12262   3.803   4.964   0.653
 4148SOL    HW112263   3.802   4.917   0.741
 4148SOL    HW212264   3.885   4.936   0.602
 4149SOL     OW12265   4.152   4.148   0.520
 4149SOL    HW112266   4.182   4.076   0.458
 4149SOL    HW212267   4.113   4.108   0.603
 4150SOL     OW12268   4.041   4.271   1.280
 4150SOL    HW112269   4.079   4.212   1.352
 4150SOL    HW212270   4.081   4.245   1.192
 4151SOL     OW12271   4.725   3.758   1.154
 4151SOL    HW112272   4.662   3.686   1.123
 4151SOL    HW212273   4.818   3.722   1.154
 4152SOL     OW12274   4.494   5.054   0.301
 4152SOL    HW112275   4.448   4.967   0.318
 4152SOL    HW212276   4.585   5.051   0.342
 4153SOL     OW12277   3.763   4.801   0.300
 4153SOL    HW112278   3.862   4.790   0.291
 4153SOL    HW212279   3.723   4.715   0.332
 4154SOL     OW12280   3.954   4.352   1.975
 4154SOL    HW112281   3.861   4.350   2.012
 4154SOL    HW212282   3.955   4.313   1.883
 4155SOL     OW12283   3.949   3.999   2.858
 4155SOL    HW112284   3.984   3.982   2.950
 4155SOL    HW212285   3.861   3.954   2.846
 4156SOL     OW12286   3.743   4.092   2.509
 4156SOL    HW112287   3.661   4.135   2.548
 4156SOL    HW212288   3.715   4.019   2.446
 4157SOL     OW12289   4.293   4.999   3.027
 4157SOL    HW112290   4.200   4.992   2.990
 4157SOL    HW212291   4.304   5.088   3.071
 4158SOL     OW12292   4.859   4.427   2.579
 4158SOL    HW112293   4.916   4.505   2.554
 4158SOL    HW212294   4.799   4.453   2.655
 4159SOL     OW12295   4.492   4.868   2.885
 4159SOL    HW112296   4.414   4.885   2.945
 4159SOL    HW212297   4.526   4.955   2.849
 4160SOL     OW12298   4.574   4.522   3.685
 4160SOL    HW112299   4.570   4.598   3.750
 4160SOL    HW212300   4.596   4.558   3.594
 4161SOL     OW12301   4.409   4.736   2.527
 4161SOL    HW112302   4.478   4.720   2.597
 4161SOL    HW212303   4.336   4.793   2.565
 4162SOL     OW12304   4.410   4.885   3.665
 4162SOL    HW112305   4.470   4.964   3.679
 4162SOL    HW212306   4.324   4.916   3.624
 4163SOL     OW12307   4.059   5.159   2.923
 4163SOL    HW112308   3.981   5.128   2.870
 4163SOL    HW212309   4.117   5.217   2.866
 4164SOL     OW12310   4.162   4.116   3.361
 4164SOL    HW112311   4.244   4.060   3.370
 4164SOL    HW212312   4.081   4.058   3.365
 4165SOL     OW12313   3.964   4.815   2.748
 4165SOL    HW112314   3.978   4.731   2.800
 4165SOL    HW212315   3.909   4.879   2.803
 4166SOL     OW12316   4.330   4.688   1.985
 4166SOL    HW112317   4.337   4.772   1.931
 4166SOL    HW212318   4.376   4.701   2.073
 4167SOL     OW12319   3.846   4.367   2.425
 4167SOL    HW112320   3.801   4.279   2.442
 4167SOL    HW212321   3.845   4.421   2.509
 4168SOL     OW12322   3.837   4.461   3.459
 4168SOL    HW112323   3.925   4.448   3.504
 4168SOL    HW212324   3.824   4.558   3.437
 4169SOL     OW12325   5.017   4.952   3.285
 4169SOL    HW112326   5.054   4.879   3.227
 4169SOL    HW212327   5.069   4.957   3.370
 4170SOL     OW12328   4.533   3.728   2.364
 4170SOL    HW112329   4.573   3.819   2.355
 4170SOL    HW212330   4.433   3.736   2.370
 4171SOL     OW12331   3.921   4.700   3.126
 4171SOL    HW112332   4.010   4.655   3.112
 4171SOL    HW212333   3.848   4.635   3.107
 4172SOL     OW12334   4.041   3.975   3.663
 4172SOL    HW112335   4.112   4.046   3.669
 4172SOL    HW212336   3.953   4.014   3.691
 4173SOL     OW12337   4.322   4.453   2.132
 4173SOL    HW112338   4.346   4.522   2.064
 4173SOL    HW212339   4.244   4.486   2.186
 4174SOL     OW12340   5.005   4.069   2.806
 4174SOL    HW112341   4.919   4.019   2.793
 4174SOL    HW212342   5.067   4.015   2.862
 4175SOL     OW12343   4.531   4.329   3.327
 4175SOL    HW112344   4.484   4.326   3.416
 4175SOL    HW212345   4.480   4.274   3.261
 4176SOL     OW12346   4.697   4.614   3.434
 4176SOL    HW112347   4.743   4.530   3.405
 4176SOL    HW212348   4.641   4.648   3.359
 4177SOL     OW12349   4.715   4.134   3.104
 4177SOL    HW112350   4.638   4.168   3.158
 4177SOL    HW212351   4.681   4.083   3.025
 4178SOL     OW12352   4.765   4.425   2.291
 4178SOL    HW112353   4.791   4.421   2.387
 4178SOL    HW212354   4.680   4.374   2.277
 4179SOL     OW12355   3.800   4.535   2.651
 4179SOL    HW112356   3.899   4.523   2.660
 4179SOL    HW212357   3.776   4.630   2.672
 4180SOL     OW12358   4.589   4.072   2.057
 4180SOL    HW112359   4.648   4.135   2.008
 4180SOL    HW212360   4.608   3.978   2.028
 4181SOL     OW12361   4.274   3.920   2.747
 4181SOL    HW112362   4.269   3.915   2.847
 4181SOL    HW212363   4.276   4.016   2.718
 4182SOL     OW12364   4.045   4.667   2.104
 4182SOL    HW112365   4.127   4.706   2.062
 4182SOL    HW212366   4.018   4.585   2.055
 4183SOL     OW12367   3.926   4.009   3.360
 4183SOL    HW112368   3.846   4.069   3.347
 4183SOL    HW212369   3.916   3.960   3.446
 4184SOL     OW12370   4.106   4.424   2.342
 4184SOL    HW112371   4.151   4.334   2.339
 4184SOL    HW212372   4.012   4.413   2.375
 4185SOL     OW12373   4.338   3.846   1.979
 4185SOL    HW112374   4.436   3.824   1.986
 4185SOL    HW212375   4.307   3.829   1.886
 4186SOL     OW12376   4.505   3.988   3.611
 4186SOL    HW112377   4.572   3.927   3.654
 4186SOL    HW212378   4.432   4.007   3.676
 4187SOL     OW12379   4.527   5.126   2.786
 4187SOL    HW112380   4.617   5.140   2.744
 4187SOL    HW212381   4.456   5.128   2.715
 4188SOL     OW12382   4.646   4.227   2.761
 4188SOL    HW112383   4.621   4.218   2.665
 4188SOL    HW212384   4.694   4.145   2.792
 4189SOL     OW12385   4.263   3.788   2.374
 4189SOL    HW112386   4.182   3.789   2.432
 4189SOL    HW212387   4.266   3.871   2.319
 4190SOL     OW12388   5.158   4.912   1.903
 4190SOL    HW112389   5.190   4.836   1.960
 4190SOL    HW212390   5.066   4.939   1.933
 4191SOL     OW12391   4.021   3.759   2.033
 4191SOL    HW112392   4.070   3.843   2.012
 4191SOL    HW212393   4.083   3.694   2.078
 4192SOL     OW12394   4.659   3.960   2.342
 4192SOL    HW112395   4.611   4.001   2.264
 4192SOL    HW212396   4.758   3.958   2.323
 4193SOL     OW12397   4.800   4.407   3.326
 4193SOL    HW112398   4.720   4.346   3.329
 4193SOL    HW212399   4.881   4.354   3.302
 4194SOL     OW12400   4.951   5.294   2.655
 4194SOL    HW112401   4.972   5.368   2.590
 4194SOL    HW212402   5.019   5.294   2.728
 4195SOL     OW12403   4.183   4.876   2.603
 4195SOL    HW112404   4.112   4.849   2.668
 4195SOL    HW212405   4.157   4.848   2.510
 4196SOL     OW12406   4.756   4.273   1.878
 4196SOL    HW112407   4.715   4.355   1.839
 4196SOL    HW212408   4.820   4.299   1.951
 4197SOL     OW12409   3.802   4.280   3.248
 4197SOL    HW112410   3.894   4.279   3.207
 4197SOL    HW212411   3.796   4.354   3.315
 4198SOL     OW12412   4.285   3.946   3.009
 4198SOL    HW112413   4.323   3.862   3.046
 4198SOL    HW212414   4.197   3.965   3.053
 4199SOL     OW12415   4.590   4.178   2.504
 4199SOL    HW112416   4.558   4.250   2.442
 4199SOL    HW212417   4.614   4.097   2.451
 4200SOL     OW12418   4.741   3.763   2.615
 4200SOL    HW112419   4.669   3.768   2.546
 4200SOL    HW212420   4.717   3.694   2.684
 4201SOL     OW12421   4.251   3.980   2.190
 4201SOL    HW112422   4.278   3.921   2.115
 4201SOL    HW212423   4.251   4.075   2.159
 4202SOL     OW12424   4.639   3.813   3.264
 4202SOL    HW112425   4.664   3.793   3.169
 4202SOL    HW212426   4.711   3.869   3.306
 4203SOL     OW12427   4.704   4.840   3.581
 4203SOL    HW112428   4.605   4.846   3.591
 4203SOL    HW212429   4.727   4.760   3.525
 4204SOL     OW12430   4.429   4.774   2.230
 4204SOL    HW112431   4.415   4.781   2.329
 4204SOL    HW212432   4.513   4.723   2.212
 4205SOL     OW12433   4.134   4.537   3.113
 4205SOL    HW112434   4.220   4.549   3.163
 4205SOL    HW212435   4.092   4.450   3.140
 4206SOL     OW12436   4.998   4.110   3.124
 4206SOL    HW112437   5.019   4.184   3.188
 4206SOL    HW212438   4.909   4.127   3.081
 4207SOL     OW12439   4.091   4.824   2.363
 4207SOL    HW112440   4.084   4.907   2.307
 4207SOL    HW212441   4.095   4.744   2.303
 4208SOL     OW12442   4.290   4.261   2.727
 4208SOL    HW112443   4.302   4.327   2.653
 4208SOL    HW212444   4.336   4.295   2.810
 4209SOL     OW12445   4.976   5.072   2.250
 4209SOL    HW112446   5.026   5.149   2.290
 4209SOL    HW212447   4.881   5.074   2.282
 4210SOL     OW12448   4.126   4.475   3.460
 4210SOL    HW112449   4.194   4.530   3.413
 4210SOL    HW212450   4.166   4.387   3.487
 4211SOL     OW12451   4.737   3.829   3.632
 4211SOL    HW112452   4.743   3.914   3.580
 4211SOL    HW212453   4.769   3.753   3.575
 4212SOL     OW12454   4.228   3.774   3.602
 4212SOL    HW112455   4.186   3.717   3.532
 4212SOL    HW212456   4.162   3.843   3.634
 4213SOL     OW12457   4.297   4.594   2.891
 4213SOL    HW112458   4.341   4.683   2.882
 4213SOL    HW212459   4.234   4.594   2.968
 4214SOL     OW12460   5.084   4.586   2.907
 4214SOL    HW112461   5.009   4.586   2.841
 4214SOL    HW212462   5.121   4.494   2.916
 4215SOL     OW12463   4.933   4.249   2.137
 4215SOL    HW112464   4.946   4.165   2.191
 4215SOL    HW212465   4.904   4.323   2.197
 4216SOL     OW12466   4.031   3.937   3.093
 4216SOL    HW112467   4.008   3.974   3.183
 4216SOL    HW212468   4.001   3.842   3.087
 4217SOL     OW12469   4.456   4.358   2.926
 4217SOL    HW112470   4.515   4.332   2.850
 4217SOL    HW212471   4.428   4.454   2.915
 4218SOL     OW12472   4.031   3.787   2.480
 4218SOL    HW112473   4.020   3.881   2.513
 4218SOL    HW212474   4.026   3.724   2.557
 4219SOL     OW12475   5.346   4.091   2.236
 4219SOL    HW112476   5.348   4.015   2.300
 4219SOL    HW212477   5.298   4.168   2.276
 4220SOL     OW12478   4.747   4.490   2.828
 4220SOL    HW112479   4.762   4.511   2.924
 4220SOL    HW212480   4.717   4.395   2.819
 4221SOL     OW12481   4.074   4.622   3.666
 4221SOL    HW112482   4.150   4.666   3.714
 4221SOL    HW212483   4.109   4.575   3.584
 4222SOL     OW12484   5.027   4.562   1.904
 4222SOL    HW112485   5.061   4.469   1.919
 4222SOL    HW212486   5.045   4.589   1.809
 4223SOL     OW12487   4.043   4.534   2.811
 4223SOL    HW112488   4.136   4.570   2.816
 4223SOL    HW212489   4.037   4.449   2.863
 4224SOL     OW12490   4.063   4.233   2.868
 4224SOL    HW112491   4.011   4.150   2.851
 4224SOL    HW212492   4.140   4.238   2.804
 4225SOL     OW12493   4.862   4.104   3.540
 4225SOL    HW112494   4.817   4.167   3.604
 4225SOL    HW212495   4.955   4.135   3.523
 4226SOL     OW12496   4.884   3.931   3.339
 4226SOL    HW112497   4.884   3.995   3.416
 4226SOL    HW212498   4.912   3.979   3.256
 4227SOL     OW12499   3.732   5.050   2.062
 4227SOL    HW112500   3.639   5.071   2.031
 4227SOL    HW212501   3.742   4.951   2.075
 4228SOL     OW12502   4.726   4.520   3.100
 4228SOL    HW112503   4.767   4.488   3.186
 4228SOL    HW212504   4.630   4.493   3.097
 4229SOL     OW12505   3.764   4.268   2.976
 4229SOL    HW112506   3.849   4.235   2.935
 4229SOL    HW212507   3.777   4.283   3.074
 4230SOL     OW12508   3.913   4.244   3.584
 4230SOL    HW112509   3.972   4.204   3.514
 4230SOL    HW212510   3.855   4.315   3.543
 4231SOL     OW12511   4.539   4.296   2.187
 4231SOL    HW112512   4.546   4.207   2.141
 4231SOL    HW212513   4.445   4.330   2.179
 4232SOL     OW12514   4.395   4.188   3.131
 4232SOL    HW112515   4.361   4.099   3.101
 4232SOL    HW212516   4.421   4.242   3.051
 4233SOL     OW12517   4.197   4.224   2.053
 4233SOL    HW112518   4.258   4.304   2.057
 4233SOL    HW212519   4.102   4.255   2.060
 4234SOL     OW12520   3.883   4.861   3.328
 4234SOL    HW112521   3.905   4.800   3.404
 4234SOL    HW212522   3.893   4.812   3.242
 4235SOL     OW12523   5.071   4.783   3.096
 4235SOL    HW112524   5.095   4.720   3.022
 4235SOL    HW212525   4.981   4.823   3.078
 4236SOL     OW12526   3.807   4.982   2.884
 4236SOL    HW112527   3.802   4.981   2.984
 4236SOL    HW212528   3.724   4.941   2.846
 4237SOL     OW12529   5.004   4.651   2.534
 4237SOL    HW112530   5.064   4.570   2.536
 4237SOL    HW212531   5.044   4.720   2.474
 4238SOL     OW12532   4.554   4.997   3.284
 4238SOL    HW112533   4.549   5.030   3.379
 4238SOL    HW212534   4.468   5.016   3.238
 4239SOL     OW12535   3.987   4.050   2.582
 4239SOL    HW112536   3.908   4.101   2.548
 4239SOL    HW212537   3.978   4.035   2.680
 4240SOL     OW12538   4.918   5.336   1.893
 4240SOL    HW112539   4.924   5.243   1.930
 4240SOL    HW212540   4.859   5.336   1.813
 4241SOL     OW12541   4.546   4.726   3.234
 4241SOL    HW112542   4.586   4.725   3.142
 4241SOL    HW212543   4.556   4.818   3.274
 4242SOL     OW12544   4.640   4.634   2.153
 4242SOL    HW112545   4.703   4.672   2.085
 4242SOL    HW212546   4.680   4.551   2.192
 4243SOL     OW12547   4.096   5.012   3.352
 4243SOL    HW112548   4.083   5.105   3.318
 4243SOL    HW212549   4.012   4.960   3.339
 4244SOL     OW12550   4.763   4.822   2.558
 4244SOL    HW112551   4.693   4.775   2.612
 4244SOL    HW212552   4.822   4.754   2.515
 4245SOL     OW12553   4.738   3.960   2.833
 4245SOL    HW112554   4.730   3.924   2.740
 4245SOL    HW212555   4.736   3.884   2.898
 4246SOL     OW12556   3.829   4.737   3.588
 4246SOL    HW112557   3.752   4.704   3.642
 4246SOL    HW212558   3.914   4.707   3.630
 4247SOL     OW12559   4.396   3.927   3.351
 4247SOL    HW112560   4.486   3.911   3.311
 4247SOL    HW212561   4.404   3.932   3.450
 4248SOL     OW12562   3.799   4.069   1.895
 4248SOL    HW112563   3.707   4.041   1.866
 4248SOL    HW212564   3.830   4.146   1.839
 4249SOL     OW12565   5.164   4.580   3.260
 4249SOL    HW112566   5.107   4.632   3.197
 4249SOL    HW212567   5.260   4.592   3.236
 4250SOL     OW12568   3.796   3.890   2.180
 4250SOL    HW112569   3.779   3.973   2.126
 4250SOL    HW212570   3.886   3.853   2.158
 4251SOL     OW12571   4.337   4.566   3.293
 4251SOL    HW112572   4.393   4.647   3.276
 4251SOL    HW212573   4.396   4.486   3.296
 4252SOL     OW12574   4.440   4.289   3.570
 4252SOL    HW112575   4.459   4.354   3.644
 4252SOL    HW212576   4.500   4.209   3.579
 4253SOL     OW12577   5.174   4.944   3.495
 4253SOL    HW112578   5.165   4.934   3.594
 4253SOL    HW212579   5.270   4.937   3.469
 4254SOL     OW12580   4.949   4.049   2.311
 4254SOL    HW112581   5.014   3.975   2.300
 4254SOL    HW212582   4.969   4.099   2.395
 4255SOL     OW12583   4.318   4.469   2.514
 4255SOL    HW112584   4.368   4.554   2.495
 4255SOL    HW212585   4.230   4.471   2.466
 4256SOL     OW12586   4.583   4.680   2.723
 4256SOL    HW112587   4.637   4.611   2.771
 4256SOL    HW212588   4.551   4.749   2.789
 4257SOL     OW12589   4.807   4.708   1.949
 4257SOL    HW112590   4.784   4.761   1.867
 4257SOL    HW212591   4.888   4.652   1.930
 4258SOL     OW12592   3.803   4.964   2.515
 4258SOL    HW112593   3.802   4.917   2.603
 4258SOL    HW212594   3.885   4.936   2.464
 4259SOL     OW12595   4.152   4.148   2.382
 4259SOL    HW112596   4.182   4.076   2.320
 4259SOL    HW212597   4.113   4.108   2.465
 4260SOL     OW12598   4.041   4.271   3.142
 4260SOL    HW112599   4.079   4.212   3.214
 4260SOL    HW212600   4.081   4.245   3.054
 4261SOL     OW12601   4.725   3.758   3.016
 4261SOL    HW112602   4.662   3.686   2.985
 4261SOL    HW212603   4.818   3.722   3.016
 4262SOL     OW12604   4.494   5.054   2.163
 4262SOL    HW112605   4.448   4.967   2.180
 4262SOL    HW212606   4.585   5.051   2.204
 4263SOL     OW12607   5.076   3.776   2.030
 4263SOL    HW112608   5.111   3.735   1.946
 4263SOL    HW212609   4.986   3.738   2.050
 4264SOL     OW12610   3.763   4.801   2.162
 4264SOL    HW112611   3.862   4.790   2.153
 4264SOL    HW212612   3.723   4.715   2.194
 4265SOL     OW12613   3.954   4.352   3.837
 4265SOL    HW112614   3.861   4.350   3.874
 4265SOL    HW212615   3.955   4.313   3.745
 4266SOL     OW12616   3.949   3.999   4.720
 4266SOL    HW112617   3.984   3.982   4.812
 4266SOL    HW212618   3.861   3.954   4.708
 4267SOL     OW12619   3.743   4.092   4.371
 4267SOL    HW112620   3.661   4.135   4.410
 4267SOL    HW212621   3.715   4.019   4.308
 4268SOL     OW12622   4.293   4.999   4.889
 4268SOL    HW112623   4.200   4.992   4.852
 4268SOL    HW212624   4.304   5.088   4.933
 4269SOL     OW12625   4.859   4.427   4.441
 4269SOL    HW112626   4.916   4.505   4.416
 4269SOL    HW212627   4.799   4.453   4.517
 4270SOL     OW12628   4.492   4.868   4.747
 4270SOL    HW112629   4.414   4.885   4.807
 4270SOL    HW212630   4.526   4.955   4.711
 4271SOL     OW12631   4.409   4.736   4.389
 4271SOL    HW112632   4.478   4.720   4.459
 4271SOL    HW212633   4.336   4.793   4.427
 4272SOL     OW12634   4.059   5.159   4.785
 4272SOL    HW112635   3.981   5.128   4.732
 4272SOL    HW212636   4.117   5.217   4.728
 4273SOL     OW12637   3.964   4.815   4.610
 4273SOL    HW112638   3.978   4.731   4.662
 4273SOL    HW212639   3.909   4.879   4.665
 4274SOL     OW12640   4.330   4.688   3.847
 4274SOL    HW112641   4.337   4.772   3.793
 4274SOL    HW212642   4.376   4.701   3.935
 4275SOL     OW12643   3.846   4.367   4.287
 4275SOL    HW112644   3.801   4.279   4.304
 4275SOL    HW212645   3.845   4.421   4.371
 4276SOL     OW12646   4.533   3.728   4.226
 4276SOL    HW112647   4.573   3.819   4.217
 4276SOL    HW212648   4.433   3.736   4.232
 4277SOL     OW12649   3.921   4.700   4.988
 4277SOL    HW112650   4.010   4.655   4.974
 4277SOL    HW212651   3.848   4.635   4.969
 4278SOL     OW12652   4.322   4.453   3.994
 4278SOL    HW112653   4.346   4.522   3.926
 4278SOL    HW212654   4.244   4.486   4.048
 4279SOL     OW12655   5.005   4.069   4.668
 4279SOL    HW112656   4.919   4.019   4.655
 4279SOL    HW212657   5.067   4.015   4.724
 4280SOL     OW12658   4.715   4.134   4.966
 4280SOL    HW112659   4.638   4.168   5.020
 4280SOL    HW212660   4.681   4.083   4.887
 4281SOL     OW12661   4.765   4.425   4.153
 4281SOL    HW112662   4.791   4.421   4.249
 4281SOL    HW212663   4.680   4.374   4.139
 4282SOL     OW12664   3.800   4.535   4.513
 4282SOL    HW112665   3.899   4.523   4.522
 4282SOL    HW212666   3.776   4.630   4.534
 4283SOL     OW12667   4.589   4.072   3.919
 4283SOL    HW112668   4.648   4.135   3.870
 4283SOL    HW212669   4.608   3.978   3.890
 4284SOL     OW12670   4.274   3.920   4.609
 4284SOL    HW112671   4.269   3.915   4.709
 4284SOL    HW212672   4.276   4.016   4.580
 4285SOL     OW12673   4.045   4.667   3.966
 4285SOL    HW112674   4.127   4.706   3.924
 4285SOL    HW212675   4.018   4.585   3.917
 4286SOL     OW12676   4.106   4.424   4.204
 4286SOL    HW112677   4.151   4.334   4.201
 4286SOL    HW212678   4.012   4.413   4.237
 4287SOL     OW12679   4.338   3.846   3.841
 4287SOL    HW112680   4.436   3.824   3.848
 4287SOL    HW212681   4.307   3.829   3.748
 4288SOL     OW12682   4.527   5.126   4.648
 4288SOL    HW112683   4.617   5.140   4.606
 4288SOL    HW212684   4.456   5.128   4.577
 4289SOL     OW12685   4.646   4.227   4.623
 4289SOL    HW112686   4.621   4.218   4.527
 4289SOL    HW212687   4.694   4.145   4.654
 4290SOL     OW12688   4.263   3.788   4.236
 4290SOL    HW112689   4.182   3.789   4.294
 4290SOL    HW212690   4.266   3.871   4.181
 4291SOL     OW12691   5.158   4.912   3.765
 4291SOL    HW112692   5.190   4.836   3.822
 4291SOL    HW212693   5.066   4.939   3.795
 4292SOL     OW12694   4.021   3.759   3.895
 4292SOL    HW112695   4.070   3.843   3.874
 4292SOL    HW212696   4.083   3.694   3.940
 4293SOL     OW12697   4.659   3.960   4.204
 4293SOL    HW112698   4.611   4.001   4.126
 4293SOL    HW212699   4.758   3.958   4.185
 4294SOL     OW12700   4.951   5.294   4.517
 4294SOL    HW112701   4.972   5.368   4.452
 4294SOL    HW212702   5.019   5.294   4.590
 4295SOL     OW12703   4.183   4.876   4.465
 4295SOL    HW112704   4.112   4.849   4.530
 4295SOL    HW212705   4.157   4.848   4.372
 4296SOL     OW12706   4.756   4.273   3.740
 4296SOL    HW112707   4.715   4.355   3.701
 4296SOL    HW212708   4.820   4.299   3.813
 4297SOL     OW12709   4.285   3.946   4.871
 4297SOL    HW112710   4.323   3.862   4.908
 4297SOL    HW212711   4.197   3.965   4.915
 4298SOL     OW12712   4.590   4.178   4.366
 4298SOL    HW112713   4.558   4.250   4.304
 4298SOL    HW212714   4.614   4.097   4.313
 4299SOL     OW12715   4.741   3.763   4.477
 4299SOL    HW112716   4.669   3.768   4.408
 4299SOL    HW212717   4.717   3.694   4.546
 4300SOL     OW12718   4.251   3.980   4.052
 4300SOL    HW112719   4.278   3.921   3.977
 4300SOL    HW212720   4.251   4.075   4.021
 4301SOL     OW12721   4.429   4.774   4.092
 4301SOL    HW112722   4.415   4.781   4.191
 4301SOL    HW212723   4.513   4.723   4.074
 4302SOL     OW12724   4.134   4.537   4.975
 4302SOL    HW112725   4.220   4.549   5.025
 4302SOL    HW212726   4.092   4.450   5.002
 4303SOL     OW12727   4.091   4.824   4.225
 4303SOL    HW112728   4.084   4.907   4.169
 4303SOL    HW212729   4.095   4.744   4.165
 4304SOL     OW12730   4.290   4.261   4.589
 4304SOL    HW112731   4.302   4.327   4.515
 4304SOL    HW212732   4.336   4.295   4.672
 4305SOL     OW12733   4.976   5.072   4.112
 4305SOL    HW112734   5.026   5.149   4.152
 4305SOL    HW212735   4.881   5.074   4.144
 4306SOL     OW12736   4.297   4.594   4.753
 4306SOL    HW112737   4.341   4.683   4.744
 4306SOL    HW212738   4.234   4.594   4.830
 4307SOL     OW12739   5.084   4.586   4.769
 4307SOL    HW112740   5.009   4.586   4.703
 4307SOL    HW212741   5.121   4.494   4.778
 4308SOL     OW12742   4.933   4.249   3.999
 4308SOL    HW112743   4.946   4.165   4.053
 4308SOL    HW212744   4.904   4.323   4.059
 4309SOL     OW12745   4.031   3.937   4.955
 4309SOL    HW112746   4.008   3.974   5.045
 4309SOL    HW212747   4.001   3.842   4.949
 4310SOL     OW12748   4.456   4.358   4.788
 4310SOL    HW112749   4.515   4.332   4.712
 4310SOL    HW212750   4.428   4.454   4.777
 4311SOL     OW12751   4.031   3.787   4.342
 4311SOL    HW112752   4.020   3.881   4.375
 4311SOL    HW212753   4.026   3.724   4.419
 4312SOL     OW12754   5.346   4.091   4.098
 4312SOL    HW112755   5.348   4.015   4.162
 4312SOL    HW212756   5.298   4.168   4.138
 4313SOL     OW12757   4.747   4.490   4.690
 4313SOL    HW112758   4.762   4.511   4.786
 4313SOL    HW212759   4.717   4.395   4.681
 4314SOL     OW12760   5.027   4.562   3.766
 4314SOL    HW112761   5.061   4.469   3.781
 4314SOL    HW212762   5.045   4.589   3.671
 4315SOL     OW12763   4.043   4.534   4.673
 4315SOL    HW112764   4.136   4.570   4.678
 4315SOL    HW212765   4.037   4.449   4.725
 4316SOL     OW12766   4.063   4.233   4.730
 4316SOL    HW112767   4.011   4.150   4.713
 4316SOL    HW212768   4.140   4.238   4.666
 4317SOL     OW12769   4.884   3.931   5.201
 4317SOL    HW112770   4.884   3.995   5.278
 4317SOL    HW212771   4.912   3.979   5.118
 4318SOL     OW12772   3.732   5.050   3.924
 4318SOL    HW112773   3.639   5.071   3.893
 4318SOL    HW212774   3.742   4.951   3.937
 4319SOL     OW12775   4.726   4.520   4.962
 4319SOL    HW112776   4.767   4.488   5.048
 4319SOL    HW212777   4.630   4.493   4.959
 4320SOL     OW12778   3.764   4.268   4.838
 4320SOL    HW112779   3.849   4.235   4.797
 4320SOL    HW212780   3.777   4.283   4.936
 4321SOL     OW12781   4.539   4.296   4.049
 4321SOL    HW112782   4.546   4.207   4.003
 4321SOL    HW212783   4.445   4.330   4.041
 4322SOL     OW12784   4.395   4.188   4.993
 4322SOL    HW112785   4.361   4.099   4.963
 4322SOL    HW212786   4.421   4.242   4.913
 4323SOL     OW12787   4.197   4.224   3.915
 4323SOL    HW112788   4.258   4.304   3.919
 4323SOL    HW212789   4.102   4.255   3.922
 4324SOL     OW12790   5.071   4.783   4.958
 4324SOL    HW112791   5.095   4.720   4.884
 4324SOL    HW212792   4.981   4.823   4.940
 4325SOL     OW12793   3.807   4.982   4.746
 4325SOL    HW112794   3.802   4.981   4.846
 4325SOL    HW212795   3.724   4.941   4.708
 4326SOL     OW12796   5.004   4.651   4.396
 4326SOL    HW112797   5.064   4.570   4.398
 4326SOL    HW212798   5.044   4.720   4.336
 4327SOL     OW12799   4.554   4.997   5.146
 4327SOL    HW112800   4.549   5.030   5.241
 4327SOL    HW212801   4.468   5.016   5.100
 4328SOL     OW12802   3.987   4.050   4.444
 4328SOL    HW112803   3.908   4.101   4.410
 4328SOL    HW212804   3.978   4.035   4.542
 4329SOL     OW12805   4.918   5.336   3.755
 4329SOL    HW112806   4.924   5.243   3.792
 4329SOL    HW212807   4.859   5.336   3.675
 4330SOL     OW12808   4.546   4.726   5.096
 4330SOL    HW112809   4.586   4.725   5.004
 4330SOL    HW212810   4.556   4.818   5.136
 4331SOL     OW12811   4.640   4.634   4.015
 4331SOL    HW112812   4.703   4.672   3.947
 4331SOL    HW212813   4.680   4.551   4.054
 4332SOL     OW12814   4.763   4.822   4.420
 4332SOL    HW112815   4.693   4.775   4.474
 4332SOL    HW212816   4.822   4.754   4.377
 4333SOL     OW12817   4.738   3.960   4.695
 4333SOL    HW112818   4.730   3.924   4.602
 4333SOL    HW212819   4.736   3.884   4.760
 4334SOL     OW12820   3.799   4.069   3.757
 4334SOL    HW112821   3.707   4.041   3.728
 4334SOL    HW212822   3.830   4.146   3.701
 4335SOL     OW12823   3.796   3.890   4.042
 4335SOL    HW112824   3.779   3.973   3.988
 4335SOL    HW212825   3.886   3.853   4.020
 4336SOL     OW12826   4.949   4.049   4.173
 4336SOL    HW112827   5.014   3.975   4.162
 4336SOL    HW212828   4.969   4.099   4.257
 4337SOL     OW12829   4.318   4.469   4.376
 4337SOL    HW112830   4.368   4.554   4.357
 4337SOL    HW212831   4.230   4.471   4.328
 4338SOL     OW12832   4.583   4.680   4.585
 4338SOL    HW112833   4.637   4.611   4.633
 4338SOL    HW212834   4.551   4.749   4.651
 4339SOL     OW12835   4.807   4.708   3.811
 4339SOL    HW112836   4.784   4.761   3.729
 4339SOL    HW212837   4.888   4.652   3.792
 4340SOL     OW12838   3.803   4.964   4.377
 4340SOL    HW112839   3.802   4.917   4.465
 4340SOL    HW212840   3.885   4.936   4.326
 4341SOL     OW12841   4.152   4.148   4.244
 4341SOL    HW112842   4.182   4.076   4.182
 4341SOL    HW212843   4.113   4.108   4.327
 4342SOL     OW12844   4.725   3.758   4.878
 4342SOL    HW112845   4.662   3.686   4.847
 4342SOL    HW212846   4.818   3.722   4.878
 4343SOL     OW12847   4.494   5.054   4.025
 4343SOL    HW112848   4.448   4.967   4.042
 4343SOL    HW212849   4.585   5.051   4.066
 4344SOL     OW12850   5.076   3.776   3.892
 4344SOL    HW112851   5.111   3.735   3.808
 4344SOL    HW212852   4.986   3.738   3.912
 4345SOL     OW12853   3.763   4.801   4.024
 4345SOL    HW112854   3.862   4.790   4.015
 4345SOL    HW212855   3.723   4.715   4.056
   5.08681   5.08681   5.08681
