S  C  A  M  O  R  G
  207
  117GLY      N    1   1.321   3.011   2.897
  117GLY     H1    2   1.284   3.093   2.939
  117GLY     H2    3   1.420   3.009   2.909
  117GLY     H3    4   1.299   3.011   2.799
  117GLY     CA    5   1.262   2.892   2.960
  117GLY    HA1    6   1.284   2.896   3.057
  117GLY    HA2    7   1.163   2.898   2.948
  117GLY      C    8   1.308   2.757   2.906
  117GLY      O    9   1.256   2.652   2.949
  118THR      N   10   1.395   2.759   2.807
  118THR      H   11   1.423   2.848   2.769
  118THR     CA   12   1.453   2.637   2.750
  118THR     HA   13   1.395   2.561   2.781
  118THR     CB   14   1.450   2.636   2.593
  118THR     HB   15   1.463   2.545   2.552
  118THR    OG1   16   1.562   2.719   2.549
  118THR    HG1   17   1.564   2.722   2.449
  118THR    CG2   18   1.316   2.689   2.540
  118THR   HG21   19   1.316   2.688   2.440
  118THR   HG22   20   1.241   2.632   2.574
  118THR   HG23   21   1.302   2.783   2.572
  118THR      C   22   1.593   2.617   2.809
  118THR      O   23   1.638   2.691   2.898
  119ASP      N   24   1.645   2.500   2.776
  119ASP      H   25   1.588   2.435   2.726
  119ASP     CA   26   1.783   2.462   2.809
  119ASP     HA   27   1.802   2.492   2.902
  119ASP     CB   28   1.799   2.310   2.807
  119ASP    HB1   29   1.735   2.270   2.872
  119ASP    HB2   30   1.780   2.276   2.715
  119ASP     CG   31   1.941   2.269   2.845
  119ASP    OD1   32   2.011   2.342   2.916
  119ASP    OD2   33   1.978   2.154   2.813
  119ASP      C   34   1.877   2.533   2.711
  119ASP      O   35   1.924   2.474   2.611
  120VAL      N   36   1.905   2.658   2.742
  120VAL      H   37   1.862   2.697   2.824
  120VAL     CA   38   1.995   2.743   2.664
  120VAL     HA   39   1.962   2.725   2.571
  120VAL     CB   40   1.978   2.892   2.696
  120VAL     HB   41   2.046   2.944   2.643
  120VAL    CG1   42   1.842   2.944   2.651
  120VAL   HG11   43   1.834   3.042   2.674
  120VAL   HG12   44   1.832   2.932   2.553
  120VAL   HG13   45   1.769   2.894   2.698
  120VAL    CG2   46   2.015   2.927   2.838
  120VAL   HG21   47   2.002   3.025   2.853
  120VAL   HG22   48   1.956   2.876   2.901
  120VAL   HG23   49   2.110   2.903   2.855
  120VAL      C   50   2.140   2.699   2.663
  120VAL      O   51   2.216   2.739   2.574
  121GLN      N   52   2.176   2.622   2.764
  121GLN      H   53   2.111   2.607   2.838
  121GLN     CA   54   2.308   2.557   2.772
  121GLN     HA   55   2.377   2.630   2.767
  121GLN     CB   56   2.315   2.484   2.906
  121GLN    HB1   57   2.262   2.534   2.975
  121GLN    HB2   58   2.278   2.391   2.896
  121GLN     CG   59   2.459   2.475   2.950
  121GLN    HG1   60   2.501   2.394   2.909
  121GLN    HG2   61   2.508   2.557   2.919
  121GLN     CD   62   2.468   2.467   3.100
  121GLN    OE1   63   2.543   2.542   3.161
  121GLN    NE2   64   2.394   2.366   3.148
  121GLN   HE21   65   2.343   2.308   3.085
  121GLN   HE22   66   2.391   2.349   3.247
  121GLN      C   67   2.338   2.465   2.654
  121GLN      O   68   2.454   2.446   2.615
  122ALA      N   69   2.236   2.406   2.591
  122ALA      H   70   2.146   2.412   2.634
  122ALA     CA   71   2.245   2.334   2.464
  122ALA     HA   72   2.294   2.250   2.489
  122ALA     CB   73   2.106   2.303   2.411
  122ALA    HB1   74   2.113   2.254   2.325
  122ALA    HB2   75   2.057   2.247   2.478
  122ALA    HB3   76   2.056   2.389   2.397
  122ALA      C   77   2.325   2.408   2.356
  122ALA      O   78   2.409   2.350   2.285
  123TRP      N   79   2.308   2.541   2.357
  123TRP      H   80   2.247   2.581   2.425
  123TRP     CA   81   2.376   2.629   2.261
  123TRP     HA   82   2.364   2.585   2.172
  123TRP     CB   83   2.309   2.766   2.268
  123TRP    HB1   84   2.307   2.799   2.362
  123TRP    HB2   85   2.358   2.831   2.210
  123TRP     CG   86   2.168   2.752   2.218
  123TRP    CD1   87   2.054   2.740   2.292
  123TRP    HD1   88   2.051   2.741   2.392
  123TRP    CD2   89   2.130   2.734   2.081
  123TRP    NE1   90   1.946   2.725   2.210
  123TRP    HE1   91   1.851   2.720   2.241
  123TRP    CE2   92   1.989   2.718   2.081
  123TRP    CE3   93   2.201   2.726   1.961
  123TRP    HE3   94   2.301   2.730   1.960
  123TRP    CZ2   95   1.917   2.697   1.964
  123TRP    HZ2   96   1.818   2.687   1.965
  123TRP    CZ3   97   2.128   2.712   1.844
  123TRP    HZ3   98   2.176   2.716   1.757
  123TRP    CH2   99   1.989   2.692   1.846
  123TRP    HH2  100   1.942   2.673   1.760
  123TRP      C  101   2.528   2.637   2.272
  123TRP      O  102   2.597   2.673   2.174
  124ILE      N  103   2.580   2.606   2.388
  124ILE      H  104   2.519   2.580   2.463
  124ILE     CA  105   2.725   2.608   2.413
  124ILE     HA  106   2.763   2.630   2.323
  124ILE     CB  107   2.756   2.719   2.519
  124ILE     HB  108   2.855   2.729   2.532
  124ILE    CG1  109   2.702   2.677   2.656
  124ILE   HG11  110   2.609   2.714   2.664
  124ILE   HG12  111   2.698   2.577   2.658
  124ILE    CG2  112   2.708   2.859   2.472
  124ILE   HG21  113   2.730   2.928   2.542
  124ILE   HG22  114   2.755   2.883   2.386
  124ILE   HG23  115   2.610   2.857   2.457
  124ILE     CD  116   2.779   2.723   2.782
  124ILE    HD1  117   2.733   2.689   2.864
  124ILE    HD2  118   2.872   2.686   2.779
  124ILE    HD3  119   2.782   2.823   2.785
  124ILE      C  120   2.792   2.475   2.435
  124ILE      O  121   2.916   2.468   2.446
  125ARG      N  122   2.714   2.369   2.446
  125ARG      H  123   2.615   2.382   2.441
  125ARG     CA  124   2.765   2.232   2.465
  125ARG     HA  125   2.828   2.235   2.543
  125ARG     CB  126   2.654   2.134   2.498
  125ARG    HB1  127   2.573   2.158   2.444
  125ARG    HB2  128   2.684   2.042   2.474
  125ARG     CG  129   2.618   2.139   2.648
  125ARG    HG1  130   2.701   2.137   2.703
  125ARG    HG2  131   2.566   2.222   2.668
  125ARG     CD  132   2.534   2.018   2.681
  125ARG    HD1  133   2.487   1.985   2.599
  125ARG    HD2  134   2.591   1.946   2.719
  125ARG     NE  135   2.434   2.054   2.780
  125ARG     HE  136   2.469   2.063   2.873
  125ARG     CZ  137   2.304   2.078   2.766
  125ARG    NH1  138   2.239   2.048   2.654
  125ARG   HH11  139   2.289   2.006   2.577
  125ARG   HH12  140   2.142   2.067   2.646
  125ARG    NH2  141   2.245   2.134   2.872
  125ARG   HH21  142   2.299   2.154   2.954
  125ARG   HH22  143   2.147   2.155   2.870
  125ARG      C  144   2.837   2.190   2.337
  125ARG      O  145   2.790   2.213   2.224
  126GLY      N  146   2.956   2.136   2.357
  126GLY      H  147   2.992   2.129   2.450
  126GLY     CA  148   3.035   2.085   2.243
  126GLY    HA1  149   3.080   2.000   2.271
  126GLY    HA2  150   2.973   2.066   2.167
  126GLY      C  151   3.139   2.186   2.199
  126GLY      O  152   3.228   2.152   2.118
  127CYS      N  153   3.140   2.301   2.263
  127CYS      H  154   3.075   2.314   2.338
  127CYS     CA  155   3.229   2.412   2.229
  127CYS     HA  156   3.264   2.396   2.137
  127CYS     CB  157   3.151   2.542   2.232
  127CYS    HB1  158   3.127   2.550   2.329
  127CYS    HB2  159   3.221   2.610   2.210
  127CYS     SG  160   3.007   2.561   2.127
  127CYS     HG  161   2.967   2.651   2.140
  127CYS      C  162   3.348   2.417   2.326
  127CYS      O  163   3.327   2.406   2.447
  128ARG      N  164   3.465   2.448   2.272
  128ARG      H  165   3.472   2.454   2.173
  128ARG     CA  166   3.583   2.475   2.355
  128ARG     HA  167   3.572   2.426   2.441
  128ARG     CB  168   3.711   2.409   2.304
  128ARG    HB1  169   3.706   2.404   2.204
  128ARG    HB2  170   3.789   2.466   2.331
  128ARG     CG  171   3.729   2.268   2.361
  128ARG    HG1  172   3.640   2.222   2.367
  128ARG    HG2  173   3.790   2.215   2.301
  128ARG     CD  174   3.789   2.270   2.498
  128ARG    HD1  175   3.741   2.338   2.554
  128ARG    HD2  176   3.780   2.180   2.540
  128ARG     NE  177   3.931   2.305   2.497
  128ARG     HE  178   3.989   2.247   2.440
  128ARG     CZ  179   3.992   2.405   2.561
  128ARG    NH1  180   3.930   2.486   2.648
  128ARG   HH11  181   3.833   2.473   2.667
  128ARG   HH12  182   3.981   2.559   2.694
  128ARG    NH2  183   4.119   2.434   2.530
  128ARG   HH21  184   4.167   2.382   2.460
  128ARG   HH22  185   4.166   2.509   2.578
  128ARG      C  186   3.588   2.623   2.391
  128ARG      O  187   3.604   2.708   2.302
  129LEU      N  188   3.535   2.650   2.510
  129LEU      H  189   3.507   2.574   2.568
  129LEU     CA  190   3.515   2.787   2.560
  129LEU     HA  191   3.534   2.851   2.485
  129LEU     CB  192   3.370   2.813   2.598
  129LEU    HB1  193   3.331   2.725   2.626
  129LEU    HB2  194   3.369   2.875   2.675
  129LEU     CG  195   3.275   2.871   2.495
  129LEU     HG  196   3.276   2.970   2.505
  129LEU    CD1  197   3.317   2.845   2.352
  129LEU   HD11  198   3.251   2.886   2.290
  129LEU   HD12  199   3.407   2.885   2.336
  129LEU   HD13  200   3.322   2.746   2.336
  129LEU    CD2  201   3.137   2.811   2.522
  129LEU   HD21  202   3.072   2.848   2.455
  129LEU   HD22  203   3.141   2.712   2.513
  129LEU   HD23  204   3.108   2.836   2.614
  129LEU      C  205   3.618   2.817   2.670
  129LEU     O1  206   3.579   2.807   2.789
  129LEU     O2  207   3.729   2.847   2.624
   5.08681   5.08681   5.08681
