Protein in water
12853
  117GLY      N    1   1.321   3.011   2.897
  117GLY     H1    2   1.284   3.093   2.939
  117GLY     H2    3   1.420   3.009   2.909
  117GLY     H3    4   1.299   3.011   2.799
  117GLY     CA    5   1.262   2.892   2.960
  117GLY    HA1    6   1.284   2.896   3.057
  117GLY    HA2    7   1.163   2.898   2.948
  117GLY      C    8   1.308   2.757   2.906
  117GLY      O    9   1.256   2.652   2.949
  118THR      N   10   1.395   2.759   2.807
  118THR      H   11   1.423   2.848   2.769
  118THR     CA   12   1.453   2.637   2.750
  118THR     HA   13   1.395   2.561   2.781
  118THR     CB   14   1.450   2.636   2.593
  118THR     HB   15   1.463   2.545   2.552
  118THR    OG1   16   1.562   2.719   2.549
  118THR    HG1   17   1.564   2.722   2.449
  118THR    CG2   18   1.316   2.689   2.540
  118THR   HG21   19   1.316   2.688   2.440
  118THR   HG22   20   1.241   2.632   2.574
  118THR   HG23   21   1.302   2.783   2.572
  118THR      C   22   1.593   2.617   2.809
  118THR      O   23   1.638   2.691   2.898
  119ASP      N   24   1.645   2.500   2.776
  119ASP      H   25   1.588   2.435   2.726
  119ASP     CA   26   1.783   2.462   2.809
  119ASP     HA   27   1.802   2.492   2.902
  119ASP     CB   28   1.799   2.310   2.807
  119ASP    HB1   29   1.735   2.270   2.872
  119ASP    HB2   30   1.780   2.276   2.715
  119ASP     CG   31   1.941   2.269   2.845
  119ASP    OD1   32   2.011   2.342   2.916
  119ASP    OD2   33   1.978   2.154   2.813
  119ASP      C   34   1.877   2.533   2.711
  119ASP      O   35   1.924   2.474   2.611
  120VAL      N   36   1.905   2.658   2.742
  120VAL      H   37   1.862   2.697   2.824
  120VAL     CA   38   1.995   2.743   2.664
  120VAL     HA   39   1.962   2.725   2.571
  120VAL     CB   40   1.978   2.892   2.696
  120VAL     HB   41   2.046   2.944   2.643
  120VAL    CG1   42   1.842   2.944   2.651
  120VAL   HG11   43   1.834   3.042   2.674
  120VAL   HG12   44   1.832   2.932   2.553
  120VAL   HG13   45   1.769   2.894   2.698
  120VAL    CG2   46   2.015   2.927   2.838
  120VAL   HG21   47   2.002   3.025   2.853
  120VAL   HG22   48   1.956   2.876   2.901
  120VAL   HG23   49   2.110   2.903   2.855
  120VAL      C   50   2.140   2.699   2.663
  120VAL      O   51   2.216   2.739   2.574
  121GLN      N   52   2.176   2.622   2.764
  121GLN      H   53   2.111   2.607   2.838
  121GLN     CA   54   2.308   2.557   2.772
  121GLN     HA   55   2.377   2.630   2.767
  121GLN     CB   56   2.315   2.484   2.906
  121GLN    HB1   57   2.262   2.534   2.975
  121GLN    HB2   58   2.278   2.391   2.896
  121GLN     CG   59   2.459   2.475   2.950
  121GLN    HG1   60   2.501   2.394   2.909
  121GLN    HG2   61   2.508   2.557   2.919
  121GLN     CD   62   2.468   2.467   3.100
  121GLN    OE1   63   2.543   2.542   3.161
  121GLN    NE2   64   2.394   2.366   3.148
  121GLN   HE21   65   2.343   2.308   3.085
  121GLN   HE22   66   2.391   2.349   3.247
  121GLN      C   67   2.338   2.465   2.654
  121GLN      O   68   2.454   2.446   2.615
  122ALA      N   69   2.236   2.406   2.591
  122ALA      H   70   2.146   2.412   2.634
  122ALA     CA   71   2.245   2.334   2.464
  122ALA     HA   72   2.294   2.250   2.489
  122ALA     CB   73   2.106   2.303   2.411
  122ALA    HB1   74   2.113   2.254   2.325
  122ALA    HB2   75   2.057   2.247   2.478
  122ALA    HB3   76   2.056   2.389   2.397
  122ALA      C   77   2.325   2.408   2.356
  122ALA      O   78   2.409   2.350   2.285
  123TRP      N   79   2.308   2.541   2.357
  123TRP      H   80   2.247   2.581   2.425
  123TRP     CA   81   2.376   2.629   2.261
  123TRP     HA   82   2.364   2.585   2.172
  123TRP     CB   83   2.309   2.766   2.268
  123TRP    HB1   84   2.307   2.799   2.362
  123TRP    HB2   85   2.358   2.831   2.210
  123TRP     CG   86   2.168   2.752   2.218
  123TRP    CD1   87   2.054   2.740   2.292
  123TRP    HD1   88   2.051   2.741   2.392
  123TRP    CD2   89   2.130   2.734   2.081
  123TRP    NE1   90   1.946   2.725   2.210
  123TRP    HE1   91   1.851   2.720   2.241
  123TRP    CE2   92   1.989   2.718   2.081
  123TRP    CE3   93   2.201   2.726   1.961
  123TRP    HE3   94   2.301   2.730   1.960
  123TRP    CZ2   95   1.917   2.697   1.964
  123TRP    HZ2   96   1.818   2.687   1.965
  123TRP    CZ3   97   2.128   2.712   1.844
  123TRP    HZ3   98   2.176   2.716   1.757
  123TRP    CH2   99   1.989   2.692   1.846
  123TRP    HH2  100   1.942   2.673   1.760
  123TRP      C  101   2.528   2.637   2.272
  123TRP      O  102   2.597   2.673   2.174
  124ILE      N  103   2.580   2.606   2.388
  124ILE      H  104   2.519   2.580   2.463
  124ILE     CA  105   2.725   2.608   2.413
  124ILE     HA  106   2.763   2.630   2.323
  124ILE     CB  107   2.756   2.719   2.519
  124ILE     HB  108   2.855   2.729   2.532
  124ILE    CG1  109   2.702   2.677   2.656
  124ILE   HG11  110   2.609   2.714   2.664
  124ILE   HG12  111   2.698   2.577   2.658
  124ILE    CG2  112   2.708   2.859   2.472
  124ILE   HG21  113   2.730   2.928   2.542
  124ILE   HG22  114   2.755   2.883   2.386
  124ILE   HG23  115   2.610   2.857   2.457
  124ILE     CD  116   2.779   2.723   2.782
  124ILE    HD1  117   2.733   2.689   2.864
  124ILE    HD2  118   2.872   2.686   2.779
  124ILE    HD3  119   2.782   2.823   2.785
  124ILE      C  120   2.792   2.475   2.435
  124ILE      O  121   2.916   2.468   2.446
  125ARG      N  122   2.714   2.369   2.446
  125ARG      H  123   2.615   2.382   2.441
  125ARG     CA  124   2.765   2.232   2.465
  125ARG     HA  125   2.828   2.235   2.543
  125ARG     CB  126   2.654   2.134   2.498
  125ARG    HB1  127   2.573   2.158   2.444
  125ARG    HB2  128   2.684   2.042   2.474
  125ARG     CG  129   2.618   2.139   2.648
  125ARG    HG1  130   2.701   2.137   2.703
  125ARG    HG2  131   2.566   2.222   2.668
  125ARG     CD  132   2.534   2.018   2.681
  125ARG    HD1  133   2.487   1.985   2.599
  125ARG    HD2  134   2.591   1.946   2.719
  125ARG     NE  135   2.434   2.054   2.780
  125ARG     HE  136   2.469   2.063   2.873
  125ARG     CZ  137   2.304   2.078   2.766
  125ARG    NH1  138   2.239   2.048   2.654
  125ARG   HH11  139   2.289   2.006   2.577
  125ARG   HH12  140   2.142   2.067   2.646
  125ARG    NH2  141   2.245   2.134   2.872
  125ARG   HH21  142   2.299   2.154   2.954
  125ARG   HH22  143   2.147   2.155   2.870
  125ARG      C  144   2.837   2.190   2.337
  125ARG      O  145   2.790   2.213   2.224
  126GLY      N  146   2.956   2.136   2.357
  126GLY      H  147   2.992   2.129   2.450
  126GLY     CA  148   3.035   2.085   2.243
  126GLY    HA1  149   3.080   2.000   2.271
  126GLY    HA2  150   2.973   2.066   2.167
  126GLY      C  151   3.139   2.186   2.199
  126GLY      O  152   3.228   2.152   2.118
  127CYS      N  153   3.140   2.301   2.263
  127CYS      H  154   3.075   2.314   2.338
  127CYS     CA  155   3.229   2.412   2.229
  127CYS     HA  156   3.264   2.396   2.137
  127CYS     CB  157   3.151   2.542   2.232
  127CYS    HB1  158   3.127   2.550   2.329
  127CYS    HB2  159   3.221   2.610   2.210
  127CYS     SG  160   3.007   2.561   2.127
  127CYS     HG  161   2.967   2.651   2.140
  127CYS      C  162   3.348   2.417   2.326
  127CYS      O  163   3.327   2.406   2.447
  128ARG      N  164   3.465   2.448   2.272
  128ARG      H  165   3.472   2.454   2.173
  128ARG     CA  166   3.583   2.475   2.355
  128ARG     HA  167   3.572   2.426   2.441
  128ARG     CB  168   3.711   2.409   2.304
  128ARG    HB1  169   3.706   2.404   2.204
  128ARG    HB2  170   3.789   2.466   2.331
  128ARG     CG  171   3.729   2.268   2.361
  128ARG    HG1  172   3.640   2.222   2.367
  128ARG    HG2  173   3.790   2.215   2.301
  128ARG     CD  174   3.789   2.270   2.498
  128ARG    HD1  175   3.741   2.338   2.554
  128ARG    HD2  176   3.780   2.180   2.540
  128ARG     NE  177   3.931   2.305   2.497
  128ARG     HE  178   3.989   2.247   2.440
  128ARG     CZ  179   3.992   2.405   2.561
  128ARG    NH1  180   3.930   2.486   2.648
  128ARG   HH11  181   3.833   2.473   2.667
  128ARG   HH12  182   3.981   2.559   2.694
  128ARG    NH2  183   4.119   2.434   2.530
  128ARG   HH21  184   4.167   2.382   2.460
  128ARG   HH22  185   4.166   2.509   2.578
  128ARG      C  186   3.588   2.623   2.391
  128ARG      O  187   3.604   2.708   2.302
  129LEU      N  188   3.535   2.650   2.510
  129LEU      H  189   3.507   2.574   2.568
  129LEU     CA  190   3.515   2.787   2.560
  129LEU     HA  191   3.534   2.851   2.485
  129LEU     CB  192   3.370   2.813   2.598
  129LEU    HB1  193   3.331   2.725   2.626
  129LEU    HB2  194   3.369   2.875   2.675
  129LEU     CG  195   3.275   2.871   2.495
  129LEU     HG  196   3.276   2.970   2.505
  129LEU    CD1  197   3.317   2.845   2.352
  129LEU   HD11  198   3.251   2.886   2.290
  129LEU   HD12  199   3.407   2.885   2.336
  129LEU   HD13  200   3.322   2.746   2.336
  129LEU    CD2  201   3.137   2.811   2.522
  129LEU   HD21  202   3.072   2.848   2.455
  129LEU   HD22  203   3.141   2.712   2.513
  129LEU   HD23  204   3.108   2.836   2.614
  129LEU      C  205   3.618   2.817   2.670
  129LEU     O1  206   3.579   2.807   2.789
  129LEU     O2  207   3.729   2.847   2.624
  130SOL     OW  208   0.230   0.628   0.113
  130SOL    HW1  209   0.137   0.626   0.150
  130SOL    HW2  210   0.231   0.589   0.021
  131SOL     OW  211   0.225   0.275   0.996
  131SOL    HW1  212   0.260   0.258   1.088
  131SOL    HW2  213   0.137   0.230   0.984
  132SOL     OW  214   0.019   0.368   0.647
  132SOL    HW1  215  -0.063   0.411   0.686
  132SOL    HW2  216  -0.009   0.295   0.584
  133SOL     OW  217   0.569   1.275   1.165
  133SOL    HW1  218   0.476   1.268   1.128
  133SOL    HW2  219   0.580   1.364   1.209
  134SOL     OW  220   1.555   1.511   0.703
  134SOL    HW1  221   1.498   1.495   0.784
  134SOL    HW2  222   1.496   1.521   0.623
  135SOL     OW  223   1.135   0.703   0.717
  135SOL    HW1  224   1.192   0.781   0.692
  135SOL    HW2  225   1.075   0.729   0.793
  136SOL     OW  226   1.755   0.607   0.231
  136SOL    HW1  227   1.743   0.594   0.132
  136SOL    HW2  228   1.725   0.526   0.280
  137SOL     OW  229   0.768   1.144   1.023
  137SOL    HW1  230   0.690   1.161   1.083
  137SOL    HW2  231   0.802   1.231   0.987
  138SOL     OW  232   0.850   0.798   1.823
  138SOL    HW1  233   0.846   0.874   1.888
  138SOL    HW2  234   0.872   0.834   1.732
  139SOL     OW  235   0.685   1.012   0.665
  139SOL    HW1  236   0.754   0.996   0.735
  139SOL    HW2  237   0.612   1.069   0.703
  140SOL     OW  238   0.686   1.161   1.803
  140SOL    HW1  239   0.746   1.240   1.817
  140SOL    HW2  240   0.600   1.192   1.762
  141SOL     OW  241   0.335   1.435   1.061
  141SOL    HW1  242   0.257   1.404   1.008
  141SOL    HW2  243   0.393   1.493   1.004
  142SOL     OW  244   1.460   1.505   1.339
  142SOL    HW1  245   1.484   1.599   1.365
  142SOL    HW2  246   1.444   1.451   1.421
  143SOL     OW  247   0.438   0.392   1.499
  143SOL    HW1  248   0.520   0.336   1.508
  143SOL    HW2  249   0.357   0.334   1.503
  144SOL     OW  250   1.603   0.447   0.737
  144SOL    HW1  251   1.529   0.493   0.687
  144SOL    HW2  252   1.654   0.515   0.790
  145SOL     OW  253   0.231   1.713   0.483
  145SOL    HW1  254   0.265   1.790   0.537
  145SOL    HW2  255   0.275   1.713   0.393
  146SOL     OW  256   1.127   1.341   1.690
  146SOL    HW1  257   1.174   1.341   1.778
  146SOL    HW2  258   1.079   1.254   1.679
  147SOL     OW  259   0.230   1.434   0.538
  147SOL    HW1  260   0.204   1.530   0.538
  147SOL    HW2  261   0.159   1.380   0.583
  148SOL     OW  262   0.240   1.091   0.886
  148SOL    HW1  263   0.254   1.007   0.938
  148SOL    HW2  264   0.185   1.155   0.941
  149SOL     OW  265   0.620   1.786   1.439
  149SOL    HW1  266   0.528   1.769   1.474
  149SOL    HW2  267   0.648   1.878   1.465
  150SOL     OW  268   0.606   0.964   0.123
  150SOL    HW1  269   0.613   1.048   0.069
  150SOL    HW2  270   0.652   0.977   0.211
  151SOL     OW  271   1.594   0.114   1.480
  151SOL    HW1  272   1.576   0.181   1.408
  151SOL    HW2  273   1.591   0.160   1.569
  152SOL     OW  274   0.122   0.643   0.563
  152SOL    HW1  275   0.077   0.555   0.580
  152SOL    HW2  276   0.121   0.697   0.647
  153SOL     OW  277   1.842   1.767   0.359
  153SOL    HW1  278   1.896   1.738   0.439
  153SOL    HW2  279   1.872   1.857   0.330
  154SOL     OW  280   0.027   1.596   0.117
  154SOL    HW1  281   0.008   1.500   0.138
  154SOL    HW2  282  -0.006   1.654   0.192
  155SOL     OW  283   1.689   0.922   0.612
  155SOL    HW1  284   1.784   0.893   0.620
  155SOL    HW2  285   1.681   0.987   0.537
  156SOL     OW  286   1.641   1.108   0.432
  156SOL    HW1  287   1.727   1.110   0.380
  156SOL    HW2  288   1.655   1.155   0.520
  157SOL     OW  289   0.113   0.737   1.597
  157SOL    HW1  290   0.201   0.724   1.642
  157SOL    HW2  291   0.100   0.834   1.575
  158SOL     OW  292   0.613   1.365   0.726
  158SOL    HW1  293   0.564   1.278   0.735
  158SOL    HW2  294   0.590   1.408   0.639
  159SOL     OW  295   1.293   1.228   1.423
  159SOL    HW1  296   1.330   1.155   1.365
  159SOL    HW2  297   1.345   1.233   1.508
  160SOL     OW  298   0.809   0.004   0.502
  160SOL    HW1  299   0.849   0.095   0.493
  160SOL    HW2  300   0.709   0.012   0.508
  161SOL     OW  301   0.197   0.976   1.264
  161SOL    HW1  302   0.286   0.931   1.250
  161SOL    HW2  303   0.124   0.911   1.245
  162SOL     OW  304   1.525   0.999   0.190
  162SOL    HW1  305   1.462   0.923   0.203
  162SOL    HW2  306   1.573   1.017   0.276
  163SOL     OW  307   1.187   1.792   1.616
  163SOL    HW1  308   1.211   1.852   1.540
  163SOL    HW2  309   1.194   1.697   1.586
  164SOL     OW  310   0.317   0.251   1.801
  164SOL    HW1  311   0.388   0.322   1.807
  164SOL    HW2  312   0.229   0.290   1.829
  165SOL     OW  313   1.466   1.417   0.953
  165SOL    HW1  314   1.407   1.423   1.033
  165SOL    HW2  315   1.451   1.329   0.907
  166SOL     OW  316   1.667   1.714   0.572
  166SOL    HW1  317   1.626   1.691   0.484
  166SOL    HW2  318   1.649   1.640   0.637
  167SOL     OW  319   0.598   0.729   0.270
  167SOL    HW1  320   0.622   0.798   0.202
  167SOL    HW2  321   0.520   0.762   0.324
  168SOL     OW  322   1.281   0.345   0.944
  168SOL    HW1  323   1.195   0.295   0.931
  168SOL    HW2  324   1.343   0.291   1.000
  169SOL     OW  325   1.576   1.662   0.307
  169SOL    HW1  326   1.665   1.708   0.310
  169SOL    HW2  327   1.555   1.638   0.212
  170SOL     OW  328   0.807   0.605   1.465
  170SOL    HW1  329   0.760   0.602   1.554
  170SOL    HW2  330   0.756   0.550   1.399
  171SOL     OW  331   1.394   0.469   1.674
  171SOL    HW1  332   1.374   0.512   1.762
  171SOL    HW2  333   1.472   0.407   1.683
  172SOL     OW  334   0.973   0.890   1.572
  172SOL    HW1  335   1.019   0.806   1.543
  172SOL    HW2  336   0.917   0.924   1.497
  173SOL     OW  337   0.991   0.410   1.242
  173SOL    HW1  338   0.914   0.444   1.296
  173SOL    HW2  339   0.957   0.359   1.163
  174SOL     OW  340   1.041   0.701   0.429
  174SOL    HW1  341   1.067   0.697   0.525
  174SOL    HW2  342   0.956   0.650   0.415
  175SOL     OW  343   0.076   0.811   0.789
  175SOL    HW1  344   0.175   0.799   0.798
  175SOL    HW2  345   0.052   0.906   0.810
  176SOL     OW  346   0.130   1.821   1.571
  176SOL    HW1  347   0.120   1.806   1.670
  176SOL    HW2  348   0.044   1.857   1.535
  177SOL     OW  349   0.865   0.348   0.195
  177SOL    HW1  350   0.924   0.411   0.146
  177SOL    HW2  351   0.884   0.254   0.166
  178SOL     OW  352   1.719   0.585   1.831
  178SOL    HW1  353   1.693   0.674   1.795
  178SOL    HW2  354   1.717   0.517   1.758
  179SOL     OW  355   1.362   1.144   0.545
  179SOL    HW1  356   1.445   1.115   0.497
  179SOL    HW2  357   1.313   1.211   0.489
  180SOL     OW  358   0.550   0.196   0.885
  180SOL    HW1  359   0.545   0.191   0.985
  180SOL    HW2  360   0.552   0.292   0.856
  181SOL     OW  361   1.008   1.456   0.477
  181SOL    HW1  362   0.962   1.528   0.425
  181SOL    HW2  363   1.004   1.476   0.575
  182SOL     OW  364   0.351   1.801   0.853
  182SOL    HW1  365   0.401   1.715   0.859
  182SOL    HW2  366   0.416   1.878   0.850
  183SOL     OW  367   1.795   1.066   0.873
  183SOL    HW1  368   1.733   1.051   0.797
  183SOL    HW2  369   1.743   1.077   0.958
  184SOL     OW  370   1.227   1.550   1.506
  184SOL    HW1  371   1.233   1.473   1.570
  184SOL    HW2  372   1.175   1.524   1.426
  185SOL     OW  373   0.321   0.943   0.242
  185SOL    HW1  374   0.403   0.982   0.200
  185SOL    HW2  375   0.294   0.861   0.193
  186SOL     OW  376   1.458   0.735   0.728
  186SOL    HW1  377   1.453   0.670   0.803
  186SOL    HW2  378   1.538   0.794   0.741
  187SOL     OW  379   0.461   1.266   1.727
  187SOL    HW1  380   0.411   1.267   1.641
  187SOL    HW2  381   0.398   1.248   1.803
  188SOL     OW  382   1.111   1.776   0.237
  188SOL    HW1  383   1.051   1.714   0.287
  188SOL    HW2  384   1.142   1.732   0.152
  189SOL     OW  385   0.202   0.285   1.498
  189SOL    HW1  386   0.122   0.345   1.485
  189SOL    HW2  387   0.192   0.236   1.584
  190SOL     OW  388   1.632   1.377   0.081
  190SOL    HW1  389   1.600   1.471   0.071
  190SOL    HW2  390   1.556   1.314   0.069
  191SOL     OW  391   0.464   1.743   0.323
  191SOL    HW1  392   0.497   1.782   0.409
  191SOL    HW2  393   0.540   1.736   0.258
  192SOL     OW  394   1.400   0.107   0.426
  192SOL    HW1  395   1.376   0.070   0.336
  192SOL    HW2  396   1.499   0.123   0.430
  193SOL     OW  397   0.249   1.785   1.241
  193SOL    HW1  398   0.306   1.720   1.291
  193SOL    HW2  399   0.233   1.752   1.148
  194SOL     OW  400   0.940   1.698   0.904
  194SOL    HW1  401   1.020   1.641   0.925
  194SOL    HW2  402   0.891   1.658   0.827
  195SOL     OW  403   0.382   0.700   0.480
  195SOL    HW1  404   0.427   0.610   0.477
  195SOL    HW2  405   0.288   0.689   0.513
  196SOL     OW  406   1.547   0.222   1.729
  196SOL    HW1  407   1.542   0.259   1.821
  196SOL    HW2  408   1.475   0.153   1.717
  197SOL     OW  409   0.614   0.122   0.117
  197SOL    HW1  410   0.712   0.100   0.124
  197SOL    HW2  411   0.583   0.105   0.024
  198SOL     OW  412   0.781   0.264   1.749
  198SOL    HW1  413   0.848   0.203   1.792
  198SOL    HW2  414   0.708   0.283   1.814
  199SOL     OW  415   0.888   1.514   1.195
  199SOL    HW1  416   0.865   1.489   1.101
  199SOL    HW2  417   0.949   1.445   1.234
  200SOL     OW  418   1.351   0.590   1.433
  200SOL    HW1  419   1.379   0.547   1.518
  200SOL    HW2  420   1.376   0.686   1.434
  201SOL     OW  421   0.803   1.402   0.924
  201SOL    HW1  422   0.893   1.416   0.882
  201SOL    HW2  423   0.732   1.404   0.853
  202SOL     OW  424   0.922   0.503   0.899
  202SOL    HW1  425   0.897   0.494   0.803
  202SOL    HW2  426   0.970   0.421   0.930
  203SOL     OW  427   0.539   0.064   0.512
  203SOL    HW1  428   0.458   0.065   0.570
  203SOL    HW2  429   0.542   0.147   0.457
  204SOL     OW  430   1.434   1.188   0.041
  204SOL    HW1  431   1.466   1.112   0.098
  204SOL    HW2  432   1.342   1.215   0.071
  205SOL     OW  433   0.297   0.035   0.171
  205SOL    HW1  434   0.346   0.119   0.150
  205SOL    HW2  435   0.359  -0.030   0.216
  206SOL     OW  436   0.935   0.236   0.480
  206SOL    HW1  437   0.887   0.277   0.402
  206SOL    HW2  438   1.034   0.234   0.461
  207SOL     OW  439   1.076   0.683   1.464
  207SOL    HW1  440   0.996   0.622   1.467
  207SOL    HW2  441   1.157   0.630   1.440
  208SOL     OW  442   1.227   1.570   0.793
  208SOL    HW1  443   1.248   1.644   0.728
  208SOL    HW2  444   1.295   1.570   0.866
  209SOL     OW  445   0.459   1.152   0.741
  209SOL    HW1  446   0.388   1.125   0.806
  209SOL    HW2  447   0.433   1.124   0.648
  210SOL     OW  448   1.271   1.797   0.591
  210SOL    HW1  449   1.315   1.861   0.527
  210SOL    HW2  450   1.221   1.849   0.661
  211SOL     OW  451   1.032   0.549   0.016
  211SOL    HW1  452   0.991   0.631  -0.023
  211SOL    HW2  453   1.096   0.575   0.089
  212SOL     OW  454   0.078   0.556   1.386
  212SOL    HW1  455   0.170   0.555   1.345
  212SOL    HW2  456   0.072   0.630   1.453
  213SOL     OW  457   0.561   0.222   1.147
  213SOL    HW1  458   0.599   0.138   1.184
  213SOL    HW2  459   0.473   0.241   1.191
  214SOL     OW  460   0.866   0.454   0.642
  214SOL    HW1  461   0.834   0.526   0.580
  214SOL    HW2  462   0.890   0.373   0.589
  215SOL     OW  463   1.017   0.039   0.753
  215SOL    HW1  464   0.945   0.044   0.684
  215SOL    HW2  465   0.993  -0.030   0.822
  216SOL     OW  466   1.429   1.173   0.867
  216SOL    HW1  467   1.374   1.089   0.860
  216SOL    HW2  468   1.455   1.202   0.775
  217SOL     OW  469   1.466   0.590   0.992
  217SOL    HW1  470   1.436   0.495   0.999
  217SOL    HW2  471   1.539   0.606   1.058
  218SOL     OW  472   1.857   0.833   0.377
  218SOL    HW1  473   1.899   0.769   0.441
  218SOL    HW2  474   1.819   0.782   0.299
  219SOL     OW  475   0.488   1.385   0.174
  219SOL    HW1  476   0.401   1.370   0.221
  219SOL    HW2  477   0.471   1.411   0.079
  220SOL     OW  478   1.664   1.280   0.657
  220SOL    HW1  479   1.763   1.288   0.671
  220SOL    HW2  480   1.619   1.364   0.688
  221SOL     OW  481   1.390   0.575   0.078
  221SOL    HW1  482   1.336   0.554   0.159
  221SOL    HW2  483   1.481   0.534   0.087
  222SOL     OW  484   0.527   0.256   0.328
  222SOL    HW1  485   0.554   0.197   0.253
  222SOL    HW2  486   0.527   0.351   0.297
  223SOL     OW  487   1.754   1.223   1.588
  223SOL    HW1  488   1.845   1.184   1.575
  223SOL    HW2  489   1.762   1.319   1.612
  224SOL     OW  490   1.064   1.347   1.340
  224SOL    HW1  491   0.984   1.324   1.395
  224SOL    HW2  492   1.147   1.321   1.389
  225SOL     OW  493   1.592   1.629   1.625
  225SOL    HW1  494   1.619   1.663   1.535
  225SOL    HW2  495   1.671   1.591   1.671
  226SOL     OW  496   1.111   1.195   1.100
  226SOL    HW1  497   1.071   1.239   1.181
  226SOL    HW2  498   1.070   1.232   1.017
  227SOL     OW  499   1.638   1.099   1.079
  227SOL    HW1  500   1.643   1.180   1.138
  227SOL    HW2  501   1.552   1.101   1.028
  228SOL     OW  502   0.915   0.089   1.402
  228SOL    HW1  503   0.940   0.069   1.307
  228SOL    HW2  504   0.987   0.145   1.444
  229SOL     OW  505   0.980   1.116   1.719
  229SOL    HW1  506   0.881   1.122   1.729
  229SOL    HW2  507   1.003   1.036   1.663
  230SOL     OW  508   0.705   1.050   0.368
  230SOL    HW1  509   0.691   1.057   0.467
  230SOL    HW2  510   0.789   0.999   0.350
  231SOL     OW  511   0.410   0.813   1.251
  231SOL    HW1  512   0.496   0.825   1.301
  231SOL    HW2  513   0.368   0.726   1.278
  232SOL     OW  514   1.274   0.386   1.262
  232SOL    HW1  515   1.295   0.460   1.326
  232SOL    HW2  516   1.185   0.403   1.219
  233SOL     OW  517   0.064   1.564   1.331
  233SOL    HW1  518   0.018   1.646   1.297
  233SOL    HW2  519   0.162   1.583   1.340
  234SOL     OW  520   0.367   1.100   0.501
  234SOL    HW1  521   0.360   1.183   0.445
  234SOL    HW2  522   0.371   1.020   0.441
  235SOL     OW  523   0.566   0.537   0.865
  235SOL    HW1  524   0.578   0.603   0.791
  235SOL    HW2  525   0.612   0.571   0.948
  236SOL     OW  526   1.252   1.348   0.388
  236SOL    HW1  527   1.302   1.425   0.428
  236SOL    HW2  528   1.157   1.350   0.420
  237SOL     OW  529   1.272   1.445   1.142
  237SOL    HW1  530   1.319   1.458   1.229
  237SOL    HW2  531   1.206   1.371   1.151
  238SOL     OW  532   1.582   0.639   0.472
  238SOL    HW1  533   1.551   0.700   0.545
  238SOL    HW2  534   1.632   0.691   0.403
  239SOL     OW  535   0.354   1.510   1.329
  239SOL    HW1  536   0.333   1.466   1.242
  239SOL    HW2  537   0.451   1.536   1.332
  240SOL     OW  538   0.402   0.751   1.598
  240SOL    HW1  539   0.470   0.806   1.551
  240SOL    HW2  540   0.442   0.663   1.625
  241SOL     OW  541   1.587   0.779   1.670
  241SOL    HW1  542   1.495   0.817   1.665
  241SOL    HW2  543   1.647   0.826   1.605
  242SOL     OW  544   1.013   0.105   1.770
  242SOL    HW1  545   1.019   0.190   1.718
  242SOL    HW2  546   1.045   0.029   1.713
  243SOL     OW  547   0.504   0.050   1.740
  243SOL    HW1  548   0.462  -0.007   1.670
  243SOL    HW2  549   0.438   0.119   1.772
  244SOL     OW  550   0.573   0.870   1.029
  244SOL    HW1  551   0.617   0.959   1.020
  244SOL    HW2  552   0.510   0.870   1.106
  245SOL     OW  553   1.360   0.862   1.045
  245SOL    HW1  554   1.285   0.862   0.979
  245SOL    HW2  555   1.397   0.770   1.054
  246SOL     OW  556   1.209   0.525   0.275
  246SOL    HW1  557   1.222   0.441   0.329
  246SOL    HW2  558   1.180   0.599   0.335
  247SOL     OW  559   0.307   0.213   1.231
  247SOL    HW1  560   0.284   0.250   1.321
  247SOL    HW2  561   0.277   0.118   1.225
  248SOL     OW  562   0.037   1.310   1.282
  248SOL    HW1  563   0.090   1.261   1.350
  248SOL    HW2  564   0.059   1.408   1.287
  249SOL     OW  565   0.732   0.634   1.064
  249SOL    HW1  566   0.791   0.608   0.988
  249SOL    HW2  567   0.704   0.730   1.053
  250SOL     OW  568   1.728   0.935   1.854
  250SOL    HW1  569   1.682   0.928   1.765
  250SOL    HW2  570   1.666   0.979   1.920
  251SOL     OW  571   0.307   0.063   0.618
  251SOL    HW1  572   0.296   0.157   0.651
  251SOL    HW2  573   0.302   0.000   0.695
  252SOL     OW  574   1.622   0.367   0.374
  252SOL    HW1  575   1.624   0.291   0.438
  252SOL    HW2  576   1.574   0.444   0.414
  253SOL     OW  577   1.023   0.766   0.966
  253SOL    HW1  578   1.038   0.787   1.062
  253SOL    HW2  579   0.993   0.671   0.957
  254SOL     OW  580   0.980   1.573   1.700
  254SOL    HW1  581   0.960   1.617   1.612
  254SOL    HW2  582   1.019   1.482   1.684
  255SOL     OW  583   1.859   1.518   1.605
  255SOL    HW1  584   1.873   1.545   1.510
  255SOL    HW2  585   1.942   1.540   1.658
  256SOL     OW  586   0.350   0.898   1.804
  256SOL    HW1  587   0.426   0.942   1.852
  256SOL    HW2  588   0.385   0.851   1.722
  257SOL     OW  589   1.540   0.274   0.125
  257SOL    HW1  590   1.479   0.199   0.148
  257SOL    HW2  591   1.562   0.326   0.208
  258SOL     OW  592   1.303   0.838   0.042
  258SOL    HW1  593   1.337   0.745   0.057
  258SOL    HW2  594   1.321   0.865  -0.053
  259SOL     OW  595   1.068   1.333   0.849
  259SOL    HW1  596   1.075   1.249   0.794
  259SOL    HW2  597   1.130   1.402   0.813
  260SOL     OW  598   0.319   0.810   0.949
  260SOL    HW1  599   0.412   0.846   0.954
  260SOL    HW2  600   0.313   0.725   1.001
  261SOL     OW  601   0.339   0.509   1.006
  261SOL    HW1  602   0.287   0.426   0.989
  261SOL    HW2  603   0.416   0.514   0.942
  262SOL     OW  604   1.138   0.380   1.678
  262SOL    HW1  605   1.093   0.443   1.742
  262SOL    HW2  606   1.231   0.411   1.661
  263SOL     OW  607   1.160   0.207   1.477
  263SOL    HW1  608   1.160   0.271   1.554
  263SOL    HW2  609   1.188   0.255   1.394
  264SOL     OW  610   0.008   1.326   0.200
  264SOL    HW1  611  -0.085   1.347   0.169
  264SOL    HW2  612   0.018   1.227   0.213
  265SOL     OW  613   0.088   1.801   0.927
  265SOL    HW1  614   0.046   1.715   0.900
  265SOL    HW2  615   0.182   1.804   0.893
  266SOL     OW  616   0.504   1.568   0.910
  266SOL    HW1  617   0.570   1.642   0.919
  266SOL    HW2  618   0.548   1.489   0.868
  267SOL     OW  619   1.002   0.796   1.238
  267SOL    HW1  620   1.043   0.764   1.324
  267SOL    HW2  621   0.906   0.769   1.235
  268SOL     OW  622   0.040   0.544   1.114
  268SOL    HW1  623   0.125   0.511   1.073
  268SOL    HW2  624   0.053   0.559   1.212
  269SOL     OW  625   0.189   0.520   1.722
  269SOL    HW1  626   0.248   0.480   1.652
  269SOL    HW2  627   0.131   0.591   1.681
  270SOL     OW  628   1.369   0.950   1.660
  270SOL    HW1  629   1.408   1.039   1.680
  270SOL    HW2  630   1.379   0.930   1.563
  271SOL     OW  631   0.815   0.572   0.325
  271SOL    HW1  632   0.822   0.483   0.279
  271SOL    HW2  633   0.721   0.606   0.317
  272SOL     OW  634   1.657   0.604   1.206
  272SOL    HW1  635   1.619   0.535   1.268
  272SOL    HW2  636   1.739   0.568   1.162
  273SOL     OW  637   0.252   1.564   1.744
  273SOL    HW1  638   0.222   1.621   1.820
  273SOL    HW2  639   0.245   1.467   1.770
  274SOL     OW  640   0.671   0.464   1.269
  274SOL    HW1  641   0.637   0.375   1.239
  274SOL    HW2  642   0.697   0.518   1.189
  275SOL     OW  643   0.930   1.678   1.465
  275SOL    HW1  644   0.906   1.660   1.370
  275SOL    HW2  645   0.960   1.772   1.475
  276SOL     OW  646   0.473   0.500   0.191
  276SOL    HW1  647   0.534   0.580   0.195
  276SOL    HW2  648   0.378   0.531   0.198
  277SOL     OW  649   0.159   1.137   1.466
  277SOL    HW1  650   0.181   1.076   1.542
  277SOL    HW2  651   0.169   1.088   1.380
  278SOL     OW  652   1.347   1.059   1.234
  278SOL    HW1  653   1.371   0.996   1.160
  278SOL    HW2  654   1.257   1.099   1.216
  279SOL     OW  655   1.302   0.855   0.309
  279SOL    HW1  656   1.216   0.824   0.351
  279SOL    HW2  657   1.298   0.841   0.210
  280SOL     OW  658   1.759   1.747   1.154
  280SOL    HW1  659   1.820   1.777   1.081
  280SOL    HW2  660   1.721   1.658   1.132
  281SOL     OW  661   1.252   1.731   1.128
  281SOL    HW1  662   1.336   1.736   1.074
  281SOL    HW2  663   1.229   1.635   1.146
  282SOL     OW  664   0.083   1.258   1.022
  282SOL    HW1  665   0.078   1.257   1.122
  282SOL    HW2  666   0.000   1.217   0.984
  283SOL     OW  667   0.688   1.662   1.716
  283SOL    HW1  668   0.632   1.743   1.725
  283SOL    HW2  669   0.740   1.666   1.630
  284SOL     OW  670   0.903   0.086   0.133
  284SOL    HW1  671   0.954   0.087   0.047
  284SOL    HW2  672   0.959   0.044   0.204
  285SOL     OW  673   1.726   0.135   0.523
  285SOL    HW1  674   1.799   0.118   0.456
  285SOL    HW2  675   1.695   0.048   0.561
  286SOL     OW  676   1.388   1.573   0.477
  286SOL    HW1  677   1.455   1.585   0.403
  286SOL    HW2  678   1.348   1.662   0.500
  287SOL     OW  679   0.130   1.794   1.851
  287SOL    HW1  680   0.089   1.720   1.904
  287SOL    HW2  681   0.194   1.845   1.909
  288SOL     OW  682   1.280   0.927   0.672
  288SOL    HW1  683   1.340   0.846   0.674
  288SOL    HW2  684   1.320   0.996   0.612
  289SOL     OW  685   0.830   1.273   1.422
  289SOL    HW1  686   0.825   1.306   1.517
  289SOL    HW2  687   0.744   1.292   1.376
  290SOL     OW  688   0.672   1.616   0.154
  290SOL    HW1  689   0.681   1.626   0.055
  290SOL    HW2  690   0.632   1.527   0.175
  291SOL     OW  691   1.650   1.720   1.394
  291SOL    HW1  692   1.703   1.730   1.310
  291SOL    HW2  693   1.623   1.810   1.428
  292SOL     OW  694   1.841   0.175   0.963
  292SOL    HW1  695   1.880   0.090   0.927
  292SOL    HW2  696   1.743   0.177   0.944
  293SOL     OW  697   0.263   0.326   0.720
  293SOL    HW1  698   0.184   0.377   0.686
  293SOL    HW2  699   0.254   0.311   0.818
  294SOL     OW  700   1.194   1.612   0.031
  294SOL    HW1  701   1.200   1.519   0.068
  294SOL    HW2  702   1.135   1.612  -0.049
  295SOL     OW  703   0.822   1.002   1.372
  295SOL    HW1  704   0.862   1.001   1.280
  295SOL    HW2  705   0.832   1.094   1.412
  296SOL     OW  706   0.916   0.910   0.291
  296SOL    HW1  707   0.979   0.948   0.223
  296SOL    HW2  708   0.956   0.827   0.330
  297SOL     OW  709   1.504   1.607   0.044
  297SOL    HW1  710   1.412   1.644   0.051
  297SOL    HW2  711   1.542   1.627  -0.046
  298SOL     OW  712   0.372   1.288   1.490
  298SOL    HW1  713   0.359   1.381   1.456
  298SOL    HW2  714   0.288   1.236   1.477
  299SOL     OW  715   1.614   1.292   1.289
  299SOL    HW1  716   1.674   1.295   1.369
  299SOL    HW2  717   1.539   1.356   1.302
  300SOL     OW  718   1.039   1.098   0.696
  300SOL    HW1  719   0.969   1.051   0.750
  300SOL    HW2  720   1.098   1.030   0.653
  301SOL     OW  721   1.014   0.236   0.971
  301SOL    HW1  722   1.006   0.200   0.878
  301SOL    HW2  723   1.012   0.160   1.036
  302SOL     OW  724   0.590   1.487   0.491
  302SOL    HW1  725   0.632   1.429   0.421
  302SOL    HW2  726   0.546   1.566   0.447
  303SOL     OW  727   1.709   0.385   1.381
  303SOL    HW1  728   1.782   0.454   1.385
  303SOL    HW2  729   1.737   0.310   1.322
  304SOL     OW  730   0.255   1.348   0.290
  304SOL    HW1  731   0.159   1.349   0.263
  304SOL    HW2  732   0.267   1.401   0.374
  305SOL     OW  733   0.105   1.013   1.726
  305SOL    HW1  734   0.028   0.980   1.780
  305SOL    HW2  735   0.190   0.983   1.768
  306SOL     OW  736   0.672   0.203   1.489
  306SOL    HW1  737   0.762   0.187   1.449
  306SOL    HW2  738   0.680   0.208   1.588
  307SOL     OW  739   0.075   0.345   0.033
  307SOL    HW1  740  -0.017   0.317   0.004
  307SOL    HW2  741   0.106   0.422  -0.023
  308SOL     OW  742   1.440   0.856   1.398
  308SOL    HW1  743   1.383   0.908   1.335
  308SOL    HW2  744   1.536   0.868   1.374
  309SOL     OW  745   0.072   0.166   0.318
  309SOL    HW1  746   0.055   0.249   0.264
  309SOL    HW2  747   0.162   0.129   0.296
  310SOL     OW  748   1.183   1.335   0.119
  310SOL    HW1  749   1.084   1.324   0.121
  310SOL    HW2  750   1.217   1.350   0.212
  311SOL     OW  751   0.613   0.842   1.431
  311SOL    HW1  752   0.669   0.923   1.414
  311SOL    HW2  753   0.672   0.762   1.434
  312SOL     OW  754   1.493   1.767   0.959
  312SOL    HW1  755   1.526   1.831   0.890
  312SOL    HW2  756   1.559   1.761   1.034
  313SOL     OW  757   0.716   0.565   1.708
  313SOL    HW1  758   0.735   0.630   1.782
  313SOL    HW2  759   0.776   0.485   1.717
  314SOL     OW  760   1.450   1.220   1.633
  314SOL    HW1  761   1.441   1.210   1.732
  314SOL    HW2  762   1.546   1.213   1.607
  315SOL     OW  763   0.390   1.741   1.560
  315SOL    HW1  764   0.299   1.782   1.558
  315SOL    HW2  765   0.383   1.647   1.592
  316SOL     OW  766   1.674   0.883   1.254
  316SOL    HW1  767   1.647   0.794   1.217
  316SOL    HW2  768   1.675   0.951   1.181
  317SOL     OW  769   1.225   0.325   0.449
  317SOL    HW1  770   1.290   0.251   0.438
  317SOL    HW2  771   1.245   0.375   0.533
  318SOL     OW  772   0.594   0.745   0.652
  318SOL    HW1  773   0.644   0.830   0.633
  318SOL    HW2  774   0.506   0.747   0.604
  319SOL     OW  775   1.777   0.342   1.642
  319SOL    HW1  776   1.760   0.373   1.548
  319SOL    HW2  777   1.693   0.305   1.680
  320SOL     OW  778   1.730   0.934   1.517
  320SOL    HW1  779   1.768   1.025   1.532
  320SOL    HW2  780   1.722   0.917   1.418
  321SOL     OW  781   0.859   1.374   0.016
  321SOL    HW1  782   0.813   1.389   0.104
  321SOL    HW2  783   0.903   1.459  -0.014
  322SOL     OW  784   0.661   1.790   0.953
  322SOL    HW1  785   0.615   1.878   0.940
  322SOL    HW2  786   0.760   1.802   0.946
  323SOL     OW  787   0.859   0.956   0.861
  323SOL    HW1  788   0.913   0.887   0.909
  323SOL    HW2  789   0.827   1.025   0.927
  324SOL     OW  790   1.083   0.984   0.087
  324SOL    HW1  791   1.060   1.037   0.005
  324SOL    HW2  792   1.164   0.928   0.068
  325SOL     OW  793   1.861   1.569   0.851
  325SOL    HW1  794   1.790   1.557   0.781
  325SOL    HW2  795   1.862   1.490   0.911
  326SOL     OW  796   0.221   1.314   1.844
  326SOL    HW1  797   0.156   1.241   1.823
  326SOL    HW2  798   0.225   1.328   1.942
  327SOL     OW  799   0.079   1.240   0.653
  327SOL    HW1  800   0.078   1.193   0.741
  327SOL    HW2  801   0.161   1.212   0.602
  328SOL     OW  802   0.672   1.391   1.624
  328SOL    HW1  803   0.594   1.341   1.662
  328SOL    HW2  804   0.669   1.486   1.655
  329SOL     OW  805   1.824   0.192   1.227
  329SOL    HW1  806   1.820   0.102   1.271
  329SOL    HW2  807   1.827   0.181   1.128
  330SOL     OW  808   0.428   0.424   0.520
  330SOL    HW1  809   0.458   0.352   0.458
  330SOL    HW2  810   0.389   0.384   0.603
  331SOL     OW  811   1.705   1.487   1.104
  331SOL    HW1  812   1.612   1.462   1.077
  331SOL    HW2  813   1.731   1.437   1.186
  332SOL     OW  814   0.317   0.547   1.280
  332SOL    HW1  815   0.355   0.488   1.352
  332SOL    HW2  816   0.357   0.521   1.192
  333SOL     OW  817   0.812   1.586   0.687
  333SOL    HW1  818   0.844   1.596   0.593
  333SOL    HW2  819   0.733   1.524   0.689
  334SOL     OW  820   1.424   0.214   1.112
  334SOL    HW1  821   1.476   0.149   1.167
  334SOL    HW2  822   1.375   0.277   1.173
  335SOL     OW  823   1.001   0.034   1.154
  335SOL    HW1  824   0.938  -0.038   1.123
  335SOL    HW2  825   1.094  -0.002   1.154
  336SOL     OW  826   0.770   1.330   0.301
  336SOL    HW1  827   0.724   1.243   0.318
  336SOL    HW2  828   0.861   1.327   0.342
  337SOL     OW  829   0.618   1.567   1.284
  337SOL    HW1  830   0.613   1.649   1.341
  337SOL    HW2  831   0.707   1.564   1.239
  338SOL     OW  832   1.352   0.052   0.168
  338SOL    HW1  833   1.387   0.011   0.084
  338SOL    HW2  834   1.262   0.014   0.188
  339SOL     OW  835   1.300   0.453   0.691
  339SOL    HW1  836   1.241   0.533   0.695
  339SOL    HW2  837   1.315   0.418   0.784
  340SOL     OW  838   1.593   0.221   0.882
  340SOL    HW1  839   1.509   0.220   0.936
  340SOL    HW2  840   1.595   0.304   0.826
  341SOL     OW  841   0.039   1.077   0.300
  341SOL    HW1  842   0.138   1.066   0.291
  341SOL    HW2  843  -0.001   0.991   0.332
  342SOL     OW  844   0.875   1.646   0.337
  342SOL    HW1  845   0.798   1.611   0.283
  342SOL    HW2  846   0.843   1.717   0.399
  343SOL     OW  847   0.230   0.628   1.975
  343SOL    HW1  848   0.137   0.626   2.012
  343SOL    HW2  849   0.231   0.589   1.883
  344SOL     OW  850   0.225   0.275   2.858
  344SOL    HW1  851   0.260   0.258   2.950
  344SOL    HW2  852   0.137   0.230   2.846
  345SOL     OW  853   0.019   0.368   2.509
  345SOL    HW1  854  -0.063   0.411   2.548
  345SOL    HW2  855  -0.009   0.295   2.446
  346SOL     OW  856   0.569   1.275   3.027
  346SOL    HW1  857   0.476   1.268   2.990
  346SOL    HW2  858   0.580   1.364   3.071
  347SOL     OW  859   1.555   1.511   2.565
  347SOL    HW1  860   1.498   1.495   2.646
  347SOL    HW2  861   1.496   1.521   2.485
  348SOL     OW  862   1.135   0.703   2.579
  348SOL    HW1  863   1.192   0.781   2.554
  348SOL    HW2  864   1.075   0.729   2.655
  349SOL     OW  865   1.755   0.607   2.093
  349SOL    HW1  866   1.743   0.594   1.994
  349SOL    HW2  867   1.725   0.526   2.142
  350SOL     OW  868   0.768   1.144   2.885
  350SOL    HW1  869   0.690   1.161   2.945
  350SOL    HW2  870   0.802   1.231   2.849
  351SOL     OW  871   0.850   0.798   3.685
  351SOL    HW1  872   0.846   0.874   3.750
  351SOL    HW2  873   0.872   0.834   3.594
  352SOL     OW  874   0.685   1.012   2.527
  352SOL    HW1  875   0.754   0.996   2.597
  352SOL    HW2  876   0.612   1.069   2.565
  353SOL     OW  877   0.686   1.161   3.665
  353SOL    HW1  878   0.746   1.240   3.679
  353SOL    HW2  879   0.600   1.192   3.624
  354SOL     OW  880   0.335   1.435   2.923
  354SOL    HW1  881   0.257   1.404   2.870
  354SOL    HW2  882   0.393   1.493   2.866
  355SOL     OW  883   1.460   1.505   3.201
  355SOL    HW1  884   1.484   1.599   3.227
  355SOL    HW2  885   1.444   1.451   3.283
  356SOL     OW  886   0.438   0.392   3.361
  356SOL    HW1  887   0.520   0.336   3.370
  356SOL    HW2  888   0.357   0.334   3.365
  357SOL     OW  889   1.603   0.447   2.599
  357SOL    HW1  890   1.529   0.493   2.549
  357SOL    HW2  891   1.654   0.515   2.652
  358SOL     OW  892   0.231   1.713   2.345
  358SOL    HW1  893   0.265   1.790   2.399
  358SOL    HW2  894   0.275   1.713   2.255
  359SOL     OW  895   1.127   1.341   3.552
  359SOL    HW1  896   1.174   1.341   3.640
  359SOL    HW2  897   1.079   1.254   3.541
  360SOL     OW  898   0.230   1.434   2.400
  360SOL    HW1  899   0.204   1.530   2.400
  360SOL    HW2  900   0.159   1.380   2.445
  361SOL     OW  901   0.240   1.091   2.748
  361SOL    HW1  902   0.254   1.007   2.800
  361SOL    HW2  903   0.185   1.155   2.803
  362SOL     OW  904   0.620   1.786   3.301
  362SOL    HW1  905   0.528   1.769   3.336
  362SOL    HW2  906   0.648   1.878   3.327
  363SOL     OW  907   0.606   0.964   1.985
  363SOL    HW1  908   0.613   1.048   1.931
  363SOL    HW2  909   0.652   0.977   2.073
  364SOL     OW  910   1.594   0.114   3.342
  364SOL    HW1  911   1.576   0.181   3.270
  364SOL    HW2  912   1.591   0.160   3.431
  365SOL     OW  913   0.122   0.643   2.425
  365SOL    HW1  914   0.077   0.555   2.442
  365SOL    HW2  915   0.121   0.697   2.509
  366SOL     OW  916   1.842   1.767   2.221
  366SOL    HW1  917   1.896   1.738   2.301
  366SOL    HW2  918   1.872   1.857   2.192
  367SOL     OW  919   0.027   1.596   1.979
  367SOL    HW1  920   0.008   1.500   2.000
  367SOL    HW2  921  -0.006   1.654   2.054
  368SOL     OW  922   1.689   0.922   2.474
  368SOL    HW1  923   1.784   0.893   2.482
  368SOL    HW2  924   1.681   0.987   2.399
  369SOL     OW  925   1.641   1.108   2.294
  369SOL    HW1  926   1.727   1.110   2.242
  369SOL    HW2  927   1.655   1.155   2.382
  370SOL     OW  928   0.113   0.737   3.459
  370SOL    HW1  929   0.201   0.724   3.504
  370SOL    HW2  930   0.100   0.834   3.437
  371SOL     OW  931   0.613   1.365   2.588
  371SOL    HW1  932   0.564   1.278   2.597
  371SOL    HW2  933   0.590   1.408   2.501
  372SOL     OW  934   1.293   1.228   3.285
  372SOL    HW1  935   1.330   1.155   3.227
  372SOL    HW2  936   1.345   1.233   3.370
  373SOL     OW  937   0.809   0.004   2.364
  373SOL    HW1  938   0.849   0.095   2.355
  373SOL    HW2  939   0.709   0.012   2.370
  374SOL     OW  940   0.197   0.976   3.126
  374SOL    HW1  941   0.286   0.931   3.112
  374SOL    HW2  942   0.124   0.911   3.107
  375SOL     OW  943   1.525   0.999   2.052
  375SOL    HW1  944   1.462   0.923   2.065
  375SOL    HW2  945   1.573   1.017   2.138
  376SOL     OW  946   1.187   1.792   3.478
  376SOL    HW1  947   1.211   1.852   3.402
  376SOL    HW2  948   1.194   1.697   3.448
  377SOL     OW  949   0.317   0.251   3.663
  377SOL    HW1  950   0.388   0.322   3.669
  377SOL    HW2  951   0.229   0.290   3.691
  378SOL     OW  952   1.466   1.417   2.815
  378SOL    HW1  953   1.407   1.423   2.895
  378SOL    HW2  954   1.451   1.329   2.769
  379SOL     OW  955   1.667   1.714   2.434
  379SOL    HW1  956   1.626   1.691   2.346
  379SOL    HW2  957   1.649   1.640   2.499
  380SOL     OW  958   0.598   0.729   2.132
  380SOL    HW1  959   0.622   0.798   2.064
  380SOL    HW2  960   0.520   0.762   2.186
  381SOL     OW  961   1.281   0.345   2.806
  381SOL    HW1  962   1.195   0.295   2.793
  381SOL    HW2  963   1.343   0.291   2.862
  382SOL     OW  964   1.576   1.662   2.169
  382SOL    HW1  965   1.665   1.708   2.172
  382SOL    HW2  966   1.555   1.638   2.074
  383SOL     OW  967   0.807   0.605   3.327
  383SOL    HW1  968   0.760   0.602   3.416
  383SOL    HW2  969   0.756   0.550   3.261
  384SOL     OW  970   1.394   0.469   3.536
  384SOL    HW1  971   1.374   0.512   3.624
  384SOL    HW2  972   1.472   0.407   3.545
  385SOL     OW  973   0.973   0.890   3.434
  385SOL    HW1  974   1.019   0.806   3.405
  385SOL    HW2  975   0.917   0.924   3.359
  386SOL     OW  976   0.991   0.410   3.104
  386SOL    HW1  977   0.914   0.444   3.158
  386SOL    HW2  978   0.957   0.359   3.025
  387SOL     OW  979   1.041   0.701   2.291
  387SOL    HW1  980   1.067   0.697   2.387
  387SOL    HW2  981   0.956   0.650   2.277
  388SOL     OW  982   0.076   0.811   2.651
  388SOL    HW1  983   0.175   0.799   2.660
  388SOL    HW2  984   0.052   0.906   2.672
  389SOL     OW  985   0.130   1.821   3.433
  389SOL    HW1  986   0.120   1.806   3.532
  389SOL    HW2  987   0.044   1.857   3.397
  390SOL     OW  988   0.865   0.348   2.057
  390SOL    HW1  989   0.924   0.411   2.008
  390SOL    HW2  990   0.884   0.254   2.028
  391SOL     OW  991   1.719   0.585   3.693
  391SOL    HW1  992   1.693   0.674   3.657
  391SOL    HW2  993   1.717   0.517   3.620
  392SOL     OW  994   1.362   1.144   2.407
  392SOL    HW1  995   1.445   1.115   2.359
  392SOL    HW2  996   1.313   1.211   2.351
  393SOL     OW  997   0.550   0.196   2.747
  393SOL    HW1  998   0.545   0.191   2.847
  393SOL    HW2  999   0.552   0.292   2.718
  394SOL     OW 1000   1.008   1.456   2.339
  394SOL    HW1 1001   0.962   1.528   2.287
  394SOL    HW2 1002   1.004   1.476   2.437
  395SOL     OW 1003   0.351   1.801   2.715
  395SOL    HW1 1004   0.401   1.715   2.721
  395SOL    HW2 1005   0.416   1.878   2.712
  396SOL     OW 1006   1.795   1.066   2.735
  396SOL    HW1 1007   1.733   1.051   2.659
  396SOL    HW2 1008   1.743   1.077   2.820
  397SOL     OW 1009   1.227   1.550   3.368
  397SOL    HW1 1010   1.233   1.473   3.432
  397SOL    HW2 1011   1.175   1.524   3.288
  398SOL     OW 1012   0.321   0.943   2.104
  398SOL    HW1 1013   0.403   0.982   2.062
  398SOL    HW2 1014   0.294   0.861   2.055
  399SOL     OW 1015   1.458   0.735   2.590
  399SOL    HW1 1016   1.453   0.670   2.665
  399SOL    HW2 1017   1.538   0.794   2.603
  400SOL     OW 1018   0.461   1.266   3.589
  400SOL    HW1 1019   0.411   1.267   3.503
  400SOL    HW2 1020   0.398   1.248   3.665
  401SOL     OW 1021   1.111   1.776   2.099
  401SOL    HW1 1022   1.051   1.714   2.149
  401SOL    HW2 1023   1.142   1.732   2.014
  402SOL     OW 1024   0.202   0.285   3.360
  402SOL    HW1 1025   0.122   0.345   3.347
  402SOL    HW2 1026   0.192   0.236   3.446
  403SOL     OW 1027   1.632   1.377   1.943
  403SOL    HW1 1028   1.600   1.471   1.933
  403SOL    HW2 1029   1.556   1.314   1.931
  404SOL     OW 1030   0.464   1.743   2.185
  404SOL    HW1 1031   0.497   1.782   2.271
  404SOL    HW2 1032   0.540   1.736   2.120
  405SOL     OW 1033   1.400   0.107   2.288
  405SOL    HW1 1034   1.376   0.070   2.198
  405SOL    HW2 1035   1.499   0.123   2.292
  406SOL     OW 1036   0.249   1.785   3.103
  406SOL    HW1 1037   0.306   1.720   3.153
  406SOL    HW2 1038   0.233   1.752   3.010
  407SOL     OW 1039   0.940   1.698   2.766
  407SOL    HW1 1040   1.020   1.641   2.787
  407SOL    HW2 1041   0.891   1.658   2.689
  408SOL     OW 1042   0.382   0.700   2.342
  408SOL    HW1 1043   0.427   0.610   2.339
  408SOL    HW2 1044   0.288   0.689   2.375
  409SOL     OW 1045   1.547   0.222   3.591
  409SOL    HW1 1046   1.542   0.259   3.683
  409SOL    HW2 1047   1.475   0.153   3.579
  410SOL     OW 1048   0.614   0.122   1.979
  410SOL    HW1 1049   0.712   0.100   1.986
  410SOL    HW2 1050   0.583   0.105   1.886
  411SOL     OW 1051   0.781   0.264   3.611
  411SOL    HW1 1052   0.848   0.203   3.654
  411SOL    HW2 1053   0.708   0.283   3.676
  412SOL     OW 1054   0.888   1.514   3.057
  412SOL    HW1 1055   0.865   1.489   2.963
  412SOL    HW2 1056   0.949   1.445   3.096
  413SOL     OW 1057   1.351   0.590   3.295
  413SOL    HW1 1058   1.379   0.547   3.380
  413SOL    HW2 1059   1.376   0.686   3.296
  414SOL     OW 1060   0.803   1.402   2.786
  414SOL    HW1 1061   0.893   1.416   2.744
  414SOL    HW2 1062   0.732   1.404   2.715
  415SOL     OW 1063   0.922   0.503   2.761
  415SOL    HW1 1064   0.897   0.494   2.665
  415SOL    HW2 1065   0.970   0.421   2.792
  416SOL     OW 1066   0.539   0.064   2.374
  416SOL    HW1 1067   0.458   0.065   2.432
  416SOL    HW2 1068   0.542   0.147   2.319
  417SOL     OW 1069   1.434   1.188   1.903
  417SOL    HW1 1070   1.466   1.112   1.960
  417SOL    HW2 1071   1.342   1.215   1.933
  418SOL     OW 1072   0.297   0.035   2.033
  418SOL    HW1 1073   0.346   0.119   2.012
  418SOL    HW2 1074   0.359  -0.030   2.078
  419SOL     OW 1075   0.935   0.236   2.342
  419SOL    HW1 1076   0.887   0.277   2.264
  419SOL    HW2 1077   1.034   0.234   2.323
  420SOL     OW 1078   1.076   0.683   3.326
  420SOL    HW1 1079   0.996   0.622   3.329
  420SOL    HW2 1080   1.157   0.630   3.302
  421SOL     OW 1081   1.227   1.570   2.655
  421SOL    HW1 1082   1.248   1.644   2.590
  421SOL    HW2 1083   1.295   1.570   2.728
  422SOL     OW 1084   0.459   1.152   2.603
  422SOL    HW1 1085   0.388   1.125   2.668
  422SOL    HW2 1086   0.433   1.124   2.510
  423SOL     OW 1087   1.271   1.797   2.453
  423SOL    HW1 1088   1.315   1.861   2.389
  423SOL    HW2 1089   1.221   1.849   2.523
  424SOL     OW 1090   0.078   0.556   3.248
  424SOL    HW1 1091   0.170   0.555   3.207
  424SOL    HW2 1092   0.072   0.630   3.315
  425SOL     OW 1093   0.561   0.222   3.009
  425SOL    HW1 1094   0.599   0.138   3.046
  425SOL    HW2 1095   0.473   0.241   3.053
  426SOL     OW 1096   0.866   0.454   2.504
  426SOL    HW1 1097   0.834   0.526   2.442
  426SOL    HW2 1098   0.890   0.373   2.451
  427SOL     OW 1099   1.017   0.039   2.615
  427SOL    HW1 1100   0.945   0.044   2.546
  427SOL    HW2 1101   0.993  -0.030   2.684
  428SOL     OW 1102   1.429   1.173   2.729
  428SOL    HW1 1103   1.374   1.089   2.722
  428SOL    HW2 1104   1.455   1.202   2.637
  429SOL     OW 1105   1.466   0.590   2.854
  429SOL    HW1 1106   1.436   0.495   2.861
  429SOL    HW2 1107   1.539   0.606   2.920
  430SOL     OW 1108   1.857   0.833   2.239
  430SOL    HW1 1109   1.899   0.769   2.303
  430SOL    HW2 1110   1.819   0.782   2.161
  431SOL     OW 1111   0.488   1.385   2.036
  431SOL    HW1 1112   0.401   1.370   2.083
  431SOL    HW2 1113   0.471   1.411   1.941
  432SOL     OW 1114   1.664   1.280   2.519
  432SOL    HW1 1115   1.763   1.288   2.533
  432SOL    HW2 1116   1.619   1.364   2.550
  433SOL     OW 1117   1.390   0.575   1.940
  433SOL    HW1 1118   1.336   0.554   2.021
  433SOL    HW2 1119   1.481   0.534   1.949
  434SOL     OW 1120   0.527   0.256   2.190
  434SOL    HW1 1121   0.554   0.197   2.115
  434SOL    HW2 1122   0.527   0.351   2.159
  435SOL     OW 1123   1.754   1.223   3.450
  435SOL    HW1 1124   1.845   1.184   3.437
  435SOL    HW2 1125   1.762   1.319   3.474
  436SOL     OW 1126   1.064   1.347   3.202
  436SOL    HW1 1127   0.984   1.324   3.257
  436SOL    HW2 1128   1.147   1.321   3.251
  437SOL     OW 1129   1.592   1.629   3.487
  437SOL    HW1 1130   1.619   1.663   3.397
  437SOL    HW2 1131   1.671   1.591   3.533
  438SOL     OW 1132   1.111   1.195   2.962
  438SOL    HW1 1133   1.071   1.239   3.043
  438SOL    HW2 1134   1.070   1.232   2.879
  439SOL     OW 1135   1.638   1.099   2.941
  439SOL    HW1 1136   1.643   1.180   3.000
  439SOL    HW2 1137   1.552   1.101   2.890
  440SOL     OW 1138   0.915   0.089   3.264
  440SOL    HW1 1139   0.940   0.069   3.169
  440SOL    HW2 1140   0.987   0.145   3.306
  441SOL     OW 1141   0.980   1.116   3.581
  441SOL    HW1 1142   0.881   1.122   3.591
  441SOL    HW2 1143   1.003   1.036   3.525
  442SOL     OW 1144   0.705   1.050   2.230
  442SOL    HW1 1145   0.691   1.057   2.329
  442SOL    HW2 1146   0.789   0.999   2.212
  443SOL     OW 1147   0.410   0.813   3.113
  443SOL    HW1 1148   0.496   0.825   3.163
  443SOL    HW2 1149   0.368   0.726   3.140
  444SOL     OW 1150   1.274   0.386   3.124
  444SOL    HW1 1151   1.295   0.460   3.188
  444SOL    HW2 1152   1.185   0.403   3.081
  445SOL     OW 1153   0.064   1.564   3.193
  445SOL    HW1 1154   0.018   1.646   3.159
  445SOL    HW2 1155   0.162   1.583   3.202
  446SOL     OW 1156   0.367   1.100   2.363
  446SOL    HW1 1157   0.360   1.183   2.307
  446SOL    HW2 1158   0.371   1.020   2.303
  447SOL     OW 1159   0.566   0.537   2.727
  447SOL    HW1 1160   0.578   0.603   2.653
  447SOL    HW2 1161   0.612   0.571   2.810
  448SOL     OW 1162   1.252   1.348   2.250
  448SOL    HW1 1163   1.302   1.425   2.290
  448SOL    HW2 1164   1.157   1.350   2.282
  449SOL     OW 1165   1.272   1.445   3.004
  449SOL    HW1 1166   1.319   1.458   3.091
  449SOL    HW2 1167   1.206   1.371   3.013
  450SOL     OW 1168   1.582   0.639   2.334
  450SOL    HW1 1169   1.551   0.700   2.407
  450SOL    HW2 1170   1.632   0.691   2.265
  451SOL     OW 1171   0.354   1.510   3.191
  451SOL    HW1 1172   0.333   1.466   3.104
  451SOL    HW2 1173   0.451   1.536   3.194
  452SOL     OW 1174   0.402   0.751   3.460
  452SOL    HW1 1175   0.470   0.806   3.413
  452SOL    HW2 1176   0.442   0.663   3.487
  453SOL     OW 1177   1.587   0.779   3.532
  453SOL    HW1 1178   1.495   0.817   3.527
  453SOL    HW2 1179   1.647   0.826   3.467
  454SOL     OW 1180   1.013   0.105   3.632
  454SOL    HW1 1181   1.019   0.190   3.580
  454SOL    HW2 1182   1.045   0.029   3.575
  455SOL     OW 1183   0.504   0.050   3.602
  455SOL    HW1 1184   0.462  -0.007   3.532
  455SOL    HW2 1185   0.438   0.119   3.634
  456SOL     OW 1186   0.573   0.870   2.891
  456SOL    HW1 1187   0.617   0.959   2.882
  456SOL    HW2 1188   0.510   0.870   2.968
  457SOL     OW 1189   1.360   0.862   2.907
  457SOL    HW1 1190   1.285   0.862   2.841
  457SOL    HW2 1191   1.397   0.770   2.916
  458SOL     OW 1192   1.209   0.525   2.137
  458SOL    HW1 1193   1.222   0.441   2.191
  458SOL    HW2 1194   1.180   0.599   2.197
  459SOL     OW 1195   0.307   0.213   3.093
  459SOL    HW1 1196   0.284   0.250   3.183
  459SOL    HW2 1197   0.277   0.118   3.087
  460SOL     OW 1198   0.037   1.310   3.144
  460SOL    HW1 1199   0.090   1.261   3.212
  460SOL    HW2 1200   0.059   1.408   3.149
  461SOL     OW 1201   0.732   0.634   2.926
  461SOL    HW1 1202   0.791   0.608   2.850
  461SOL    HW2 1203   0.704   0.730   2.915
  462SOL     OW 1204   1.728   0.935   3.716
  462SOL    HW1 1205   1.682   0.928   3.627
  462SOL    HW2 1206   1.666   0.979   3.782
  463SOL     OW 1207   0.307   0.063   2.480
  463SOL    HW1 1208   0.296   0.157   2.513
  463SOL    HW2 1209   0.302   0.000   2.557
  464SOL     OW 1210   1.622   0.367   2.236
  464SOL    HW1 1211   1.624   0.291   2.300
  464SOL    HW2 1212   1.574   0.444   2.276
  465SOL     OW 1213   1.023   0.766   2.828
  465SOL    HW1 1214   1.038   0.787   2.924
  465SOL    HW2 1215   0.993   0.671   2.819
  466SOL     OW 1216   0.980   1.573   3.562
  466SOL    HW1 1217   0.960   1.617   3.474
  466SOL    HW2 1218   1.019   1.482   3.546
  467SOL     OW 1219   1.859   1.518   3.467
  467SOL    HW1 1220   1.873   1.545   3.372
  467SOL    HW2 1221   1.942   1.540   3.520
  468SOL     OW 1222   0.350   0.898   3.666
  468SOL    HW1 1223   0.426   0.942   3.714
  468SOL    HW2 1224   0.385   0.851   3.584
  469SOL     OW 1225   1.540   0.274   1.987
  469SOL    HW1 1226   1.479   0.199   2.010
  469SOL    HW2 1227   1.562   0.326   2.070
  470SOL     OW 1228   1.303   0.838   1.904
  470SOL    HW1 1229   1.337   0.745   1.919
  470SOL    HW2 1230   1.321   0.865   1.809
  471SOL     OW 1231   1.068   1.333   2.711
  471SOL    HW1 1232   1.075   1.249   2.656
  471SOL    HW2 1233   1.130   1.402   2.675
  472SOL     OW 1234   0.319   0.810   2.811
  472SOL    HW1 1235   0.412   0.846   2.816
  472SOL    HW2 1236   0.313   0.725   2.863
  473SOL     OW 1237   0.339   0.509   2.868
  473SOL    HW1 1238   0.287   0.426   2.851
  473SOL    HW2 1239   0.416   0.514   2.804
  474SOL     OW 1240   1.138   0.380   3.540
  474SOL    HW1 1241   1.093   0.443   3.604
  474SOL    HW2 1242   1.231   0.411   3.523
  475SOL     OW 1243   1.160   0.207   3.339
  475SOL    HW1 1244   1.160   0.271   3.416
  475SOL    HW2 1245   1.188   0.255   3.256
  476SOL     OW 1246   0.008   1.326   2.062
  476SOL    HW1 1247  -0.085   1.347   2.031
  476SOL    HW2 1248   0.018   1.227   2.075
  477SOL     OW 1249   0.088   1.801   2.789
  477SOL    HW1 1250   0.046   1.715   2.762
  477SOL    HW2 1251   0.182   1.804   2.755
  478SOL     OW 1252   0.504   1.568   2.772
  478SOL    HW1 1253   0.570   1.642   2.781
  478SOL    HW2 1254   0.548   1.489   2.730
  479SOL     OW 1255   1.002   0.796   3.100
  479SOL    HW1 1256   1.043   0.764   3.186
  479SOL    HW2 1257   0.906   0.769   3.097
  480SOL     OW 1258   0.040   0.544   2.976
  480SOL    HW1 1259   0.125   0.511   2.935
  480SOL    HW2 1260   0.053   0.559   3.074
  481SOL     OW 1261   0.189   0.520   3.584
  481SOL    HW1 1262   0.248   0.480   3.514
  481SOL    HW2 1263   0.131   0.591   3.543
  482SOL     OW 1264   1.369   0.950   3.522
  482SOL    HW1 1265   1.408   1.039   3.542
  482SOL    HW2 1266   1.379   0.930   3.425
  483SOL     OW 1267   0.815   0.572   2.187
  483SOL    HW1 1268   0.822   0.483   2.141
  483SOL    HW2 1269   0.721   0.606   2.179
  484SOL     OW 1270   1.657   0.604   3.068
  484SOL    HW1 1271   1.619   0.535   3.130
  484SOL    HW2 1272   1.739   0.568   3.024
  485SOL     OW 1273   0.252   1.564   3.606
  485SOL    HW1 1274   0.222   1.621   3.682
  485SOL    HW2 1275   0.245   1.467   3.632
  486SOL     OW 1276   0.671   0.464   3.131
  486SOL    HW1 1277   0.637   0.375   3.101
  486SOL    HW2 1278   0.697   0.518   3.051
  487SOL     OW 1279   0.930   1.678   3.327
  487SOL    HW1 1280   0.906   1.660   3.232
  487SOL    HW2 1281   0.960   1.772   3.337
  488SOL     OW 1282   0.473   0.500   2.053
  488SOL    HW1 1283   0.534   0.580   2.057
  488SOL    HW2 1284   0.378   0.531   2.060
  489SOL     OW 1285   0.159   1.137   3.328
  489SOL    HW1 1286   0.181   1.076   3.404
  489SOL    HW2 1287   0.169   1.088   3.242
  490SOL     OW 1288   1.347   1.059   3.096
  490SOL    HW1 1289   1.371   0.996   3.022
  490SOL    HW2 1290   1.257   1.099   3.078
  491SOL     OW 1291   1.302   0.855   2.171
  491SOL    HW1 1292   1.216   0.824   2.213
  491SOL    HW2 1293   1.298   0.841   2.072
  492SOL     OW 1294   1.759   1.747   3.016
  492SOL    HW1 1295   1.820   1.777   2.943
  492SOL    HW2 1296   1.721   1.658   2.994
  493SOL     OW 1297   1.252   1.731   2.990
  493SOL    HW1 1298   1.336   1.736   2.936
  493SOL    HW2 1299   1.229   1.635   3.008
  494SOL     OW 1300   0.083   1.258   2.884
  494SOL    HW1 1301   0.078   1.257   2.984
  494SOL    HW2 1302   0.000   1.217   2.846
  495SOL     OW 1303   0.688   1.662   3.578
  495SOL    HW1 1304   0.632   1.743   3.587
  495SOL    HW2 1305   0.740   1.666   3.492
  496SOL     OW 1306   1.726   0.135   2.385
  496SOL    HW1 1307   1.799   0.118   2.318
  496SOL    HW2 1308   1.695   0.048   2.423
  497SOL     OW 1309   1.388   1.573   2.339
  497SOL    HW1 1310   1.455   1.585   2.265
  497SOL    HW2 1311   1.348   1.662   2.362
  498SOL     OW 1312   0.130   1.794   3.713
  498SOL    HW1 1313   0.089   1.720   3.766
  498SOL    HW2 1314   0.194   1.845   3.771
  499SOL     OW 1315   1.280   0.927   2.534
  499SOL    HW1 1316   1.340   0.846   2.536
  499SOL    HW2 1317   1.320   0.996   2.474
  500SOL     OW 1318   0.830   1.273   3.284
  500SOL    HW1 1319   0.825   1.306   3.379
  500SOL    HW2 1320   0.744   1.292   3.238
  501SOL     OW 1321   0.672   1.616   2.016
  501SOL    HW1 1322   0.681   1.626   1.917
  501SOL    HW2 1323   0.632   1.527   2.037
  502SOL     OW 1324   1.650   1.720   3.256
  502SOL    HW1 1325   1.703   1.730   3.172
  502SOL    HW2 1326   1.623   1.810   3.290
  503SOL     OW 1327   1.841   0.175   2.825
  503SOL    HW1 1328   1.880   0.090   2.789
  503SOL    HW2 1329   1.743   0.177   2.806
  504SOL     OW 1330   0.263   0.326   2.582
  504SOL    HW1 1331   0.184   0.377   2.548
  504SOL    HW2 1332   0.254   0.311   2.680
  505SOL     OW 1333   1.194   1.612   1.893
  505SOL    HW1 1334   1.200   1.519   1.930
  505SOL    HW2 1335   1.135   1.612   1.813
  506SOL     OW 1336   0.822   1.002   3.234
  506SOL    HW1 1337   0.862   1.001   3.142
  506SOL    HW2 1338   0.832   1.094   3.274
  507SOL     OW 1339   0.916   0.910   2.153
  507SOL    HW1 1340   0.979   0.948   2.085
  507SOL    HW2 1341   0.956   0.827   2.192
  508SOL     OW 1342   1.504   1.607   1.906
  508SOL    HW1 1343   1.412   1.644   1.913
  508SOL    HW2 1344   1.542   1.627   1.816
  509SOL     OW 1345   0.372   1.288   3.352
  509SOL    HW1 1346   0.359   1.381   3.318
  509SOL    HW2 1347   0.288   1.236   3.339
  510SOL     OW 1348   1.614   1.292   3.151
  510SOL    HW1 1349   1.674   1.295   3.231
  510SOL    HW2 1350   1.539   1.356   3.164
  511SOL     OW 1351   1.039   1.098   2.558
  511SOL    HW1 1352   0.969   1.051   2.612
  511SOL    HW2 1353   1.098   1.030   2.515
  512SOL     OW 1354   1.014   0.236   2.833
  512SOL    HW1 1355   1.006   0.200   2.740
  512SOL    HW2 1356   1.012   0.160   2.898
  513SOL     OW 1357   0.590   1.487   2.353
  513SOL    HW1 1358   0.632   1.429   2.283
  513SOL    HW2 1359   0.546   1.566   2.309
  514SOL     OW 1360   1.709   0.385   3.243
  514SOL    HW1 1361   1.782   0.454   3.247
  514SOL    HW2 1362   1.737   0.310   3.184
  515SOL     OW 1363   0.255   1.348   2.152
  515SOL    HW1 1364   0.159   1.349   2.125
  515SOL    HW2 1365   0.267   1.401   2.236
  516SOL     OW 1366   0.105   1.013   3.588
  516SOL    HW1 1367   0.028   0.980   3.642
  516SOL    HW2 1368   0.190   0.983   3.630
  517SOL     OW 1369   0.672   0.203   3.351
  517SOL    HW1 1370   0.762   0.187   3.311
  517SOL    HW2 1371   0.680   0.208   3.450
  518SOL     OW 1372   0.075   0.345   1.895
  518SOL    HW1 1373  -0.017   0.317   1.866
  518SOL    HW2 1374   0.106   0.422   1.839
  519SOL     OW 1375   1.440   0.856   3.260
  519SOL    HW1 1376   1.383   0.908   3.197
  519SOL    HW2 1377   1.536   0.868   3.236
  520SOL     OW 1378   0.072   0.166   2.180
  520SOL    HW1 1379   0.055   0.249   2.126
  520SOL    HW2 1380   0.162   0.129   2.158
  521SOL     OW 1381   1.183   1.335   1.981
  521SOL    HW1 1382   1.084   1.324   1.983
  521SOL    HW2 1383   1.217   1.350   2.074
  522SOL     OW 1384   0.613   0.842   3.293
  522SOL    HW1 1385   0.669   0.923   3.276
  522SOL    HW2 1386   0.672   0.762   3.296
  523SOL     OW 1387   1.493   1.767   2.821
  523SOL    HW1 1388   1.526   1.831   2.752
  523SOL    HW2 1389   1.559   1.761   2.896
  524SOL     OW 1390   0.716   0.565   3.570
  524SOL    HW1 1391   0.735   0.630   3.644
  524SOL    HW2 1392   0.776   0.485   3.579
  525SOL     OW 1393   1.450   1.220   3.495
  525SOL    HW1 1394   1.441   1.210   3.594
  525SOL    HW2 1395   1.546   1.213   3.469
  526SOL     OW 1396   0.390   1.741   3.422
  526SOL    HW1 1397   0.299   1.782   3.420
  526SOL    HW2 1398   0.383   1.647   3.454
  527SOL     OW 1399   1.674   0.883   3.116
  527SOL    HW1 1400   1.647   0.794   3.079
  527SOL    HW2 1401   1.675   0.951   3.043
  528SOL     OW 1402   1.225   0.325   2.311
  528SOL    HW1 1403   1.290   0.251   2.300
  528SOL    HW2 1404   1.245   0.375   2.395
  529SOL     OW 1405   0.594   0.745   2.514
  529SOL    HW1 1406   0.644   0.830   2.495
  529SOL    HW2 1407   0.506   0.747   2.466
  530SOL     OW 1408   1.777   0.342   3.504
  530SOL    HW1 1409   1.760   0.373   3.410
  530SOL    HW2 1410   1.693   0.305   3.542
  531SOL     OW 1411   1.730   0.934   3.379
  531SOL    HW1 1412   1.768   1.025   3.394
  531SOL    HW2 1413   1.722   0.917   3.280
  532SOL     OW 1414   0.859   1.374   1.878
  532SOL    HW1 1415   0.813   1.389   1.966
  532SOL    HW2 1416   0.903   1.459   1.848
  533SOL     OW 1417   0.661   1.790   2.815
  533SOL    HW1 1418   0.615   1.878   2.802
  533SOL    HW2 1419   0.760   1.802   2.808
  534SOL     OW 1420   0.859   0.956   2.723
  534SOL    HW1 1421   0.913   0.887   2.771
  534SOL    HW2 1422   0.827   1.025   2.789
  535SOL     OW 1423   1.083   0.984   1.949
  535SOL    HW1 1424   1.060   1.037   1.867
  535SOL    HW2 1425   1.164   0.928   1.930
  536SOL     OW 1426   1.861   1.569   2.713
  536SOL    HW1 1427   1.790   1.557   2.643
  536SOL    HW2 1428   1.862   1.490   2.773
  537SOL     OW 1429   0.221   1.314   3.706
  537SOL    HW1 1430   0.156   1.241   3.685
  537SOL    HW2 1431   0.225   1.328   3.804
  538SOL     OW 1432   0.079   1.240   2.515
  538SOL    HW1 1433   0.078   1.193   2.603
  538SOL    HW2 1434   0.161   1.212   2.464
  539SOL     OW 1435   0.672   1.391   3.486
  539SOL    HW1 1436   0.594   1.341   3.524
  539SOL    HW2 1437   0.669   1.486   3.517
  540SOL     OW 1438   1.824   0.192   3.089
  540SOL    HW1 1439   1.820   0.102   3.133
  540SOL    HW2 1440   1.827   0.181   2.990
  541SOL     OW 1441   0.428   0.424   2.382
  541SOL    HW1 1442   0.458   0.352   2.320
  541SOL    HW2 1443   0.389   0.384   2.465
  542SOL     OW 1444   1.705   1.487   2.966
  542SOL    HW1 1445   1.612   1.462   2.939
  542SOL    HW2 1446   1.731   1.437   3.048
  543SOL     OW 1447   0.317   0.547   3.142
  543SOL    HW1 1448   0.355   0.488   3.214
  543SOL    HW2 1449   0.357   0.521   3.054
  544SOL     OW 1450   0.812   1.586   2.549
  544SOL    HW1 1451   0.844   1.596   2.455
  544SOL    HW2 1452   0.733   1.524   2.551
  545SOL     OW 1453   1.424   0.214   2.974
  545SOL    HW1 1454   1.476   0.149   3.029
  545SOL    HW2 1455   1.375   0.277   3.035
  546SOL     OW 1456   1.001   0.034   3.016
  546SOL    HW1 1457   0.938  -0.038   2.985
  546SOL    HW2 1458   1.094  -0.002   3.016
  547SOL     OW 1459   0.770   1.330   2.163
  547SOL    HW1 1460   0.724   1.243   2.180
  547SOL    HW2 1461   0.861   1.327   2.204
  548SOL     OW 1462   0.618   1.567   3.146
  548SOL    HW1 1463   0.613   1.649   3.203
  548SOL    HW2 1464   0.707   1.564   3.101
  549SOL     OW 1465   1.352   0.052   2.030
  549SOL    HW1 1466   1.387   0.011   1.946
  549SOL    HW2 1467   1.262   0.014   2.050
  550SOL     OW 1468   1.300   0.453   2.553
  550SOL    HW1 1469   1.241   0.533   2.557
  550SOL    HW2 1470   1.315   0.418   2.646
  551SOL     OW 1471   1.593   0.221   2.744
  551SOL    HW1 1472   1.509   0.220   2.798
  551SOL    HW2 1473   1.595   0.304   2.688
  552SOL     OW 1474   0.039   1.077   2.162
  552SOL    HW1 1475   0.138   1.066   2.153
  552SOL    HW2 1476  -0.001   0.991   2.194
  553SOL     OW 1477   0.875   1.646   2.199
  553SOL    HW1 1478   0.798   1.611   2.145
  553SOL    HW2 1479   0.843   1.717   2.261
  554SOL     OW 1480   0.230   0.628   3.837
  554SOL    HW1 1481   0.137   0.626   3.874
  554SOL    HW2 1482   0.231   0.589   3.745
  555SOL     OW 1483   0.225   0.275   4.720
  555SOL    HW1 1484   0.260   0.258   4.812
  555SOL    HW2 1485   0.137   0.230   4.708
  556SOL     OW 1486   0.019   0.368   4.371
  556SOL    HW1 1487  -0.063   0.411   4.410
  556SOL    HW2 1488  -0.009   0.295   4.308
  557SOL     OW 1489   0.569   1.275   4.889
  557SOL    HW1 1490   0.476   1.268   4.852
  557SOL    HW2 1491   0.580   1.364   4.933
  558SOL     OW 1492   1.555   1.511   4.427
  558SOL    HW1 1493   1.498   1.495   4.508
  558SOL    HW2 1494   1.496   1.521   4.347
  559SOL     OW 1495   1.135   0.703   4.441
  559SOL    HW1 1496   1.192   0.781   4.416
  559SOL    HW2 1497   1.075   0.729   4.517
  560SOL     OW 1498   1.755   0.607   3.955
  560SOL    HW1 1499   1.743   0.594   3.856
  560SOL    HW2 1500   1.725   0.526   4.004
  561SOL     OW 1501   0.768   1.144   4.747
  561SOL    HW1 1502   0.690   1.161   4.807
  561SOL    HW2 1503   0.802   1.231   4.711
  562SOL     OW 1504   0.685   1.012   4.389
  562SOL    HW1 1505   0.754   0.996   4.459
  562SOL    HW2 1506   0.612   1.069   4.427
  563SOL     OW 1507   0.335   1.435   4.785
  563SOL    HW1 1508   0.257   1.404   4.732
  563SOL    HW2 1509   0.393   1.493   4.728
  564SOL     OW 1510   1.603   0.447   4.461
  564SOL    HW1 1511   1.529   0.493   4.411
  564SOL    HW2 1512   1.654   0.515   4.514
  565SOL     OW 1513   0.231   1.713   4.207
  565SOL    HW1 1514   0.265   1.790   4.261
  565SOL    HW2 1515   0.275   1.713   4.117
  566SOL     OW 1516   0.230   1.434   4.262
  566SOL    HW1 1517   0.204   1.530   4.262
  566SOL    HW2 1518   0.159   1.380   4.307
  567SOL     OW 1519   0.240   1.091   4.610
  567SOL    HW1 1520   0.254   1.007   4.662
  567SOL    HW2 1521   0.185   1.155   4.665
  568SOL     OW 1522   0.620   1.786   5.163
  568SOL    HW1 1523   0.528   1.769   5.198
  568SOL    HW2 1524   0.648   1.878   5.189
  569SOL     OW 1525   0.606   0.964   3.847
  569SOL    HW1 1526   0.613   1.048   3.793
  569SOL    HW2 1527   0.652   0.977   3.935
  570SOL     OW 1528   0.122   0.643   4.287
  570SOL    HW1 1529   0.077   0.555   4.304
  570SOL    HW2 1530   0.121   0.697   4.371
  571SOL     OW 1531   1.842   1.767   4.083
  571SOL    HW1 1532   1.896   1.738   4.163
  571SOL    HW2 1533   1.872   1.857   4.054
  572SOL     OW 1534   0.027   1.596   3.841
  572SOL    HW1 1535   0.008   1.500   3.862
  572SOL    HW2 1536  -0.006   1.654   3.916
  573SOL     OW 1537   1.689   0.922   4.336
  573SOL    HW1 1538   1.784   0.893   4.344
  573SOL    HW2 1539   1.681   0.987   4.261
  574SOL     OW 1540   1.641   1.108   4.156
  574SOL    HW1 1541   1.727   1.110   4.104
  574SOL    HW2 1542   1.655   1.155   4.244
  575SOL     OW 1543   0.613   1.365   4.450
  575SOL    HW1 1544   0.564   1.278   4.459
  575SOL    HW2 1545   0.590   1.408   4.363
  576SOL     OW 1546   0.809   0.004   4.226
  576SOL    HW1 1547   0.849   0.095   4.217
  576SOL    HW2 1548   0.709   0.012   4.232
  577SOL     OW 1549   0.197   0.976   4.988
  577SOL    HW1 1550   0.286   0.931   4.974
  577SOL    HW2 1551   0.124   0.911   4.969
  578SOL     OW 1552   1.525   0.999   3.914
  578SOL    HW1 1553   1.462   0.923   3.927
  578SOL    HW2 1554   1.573   1.017   4.000
  579SOL     OW 1555   1.466   1.417   4.677
  579SOL    HW1 1556   1.407   1.423   4.757
  579SOL    HW2 1557   1.451   1.329   4.631
  580SOL     OW 1558   1.667   1.714   4.296
  580SOL    HW1 1559   1.626   1.691   4.208
  580SOL    HW2 1560   1.649   1.640   4.361
  581SOL     OW 1561   0.598   0.729   3.994
  581SOL    HW1 1562   0.622   0.798   3.926
  581SOL    HW2 1563   0.520   0.762   4.048
  582SOL     OW 1564   1.281   0.345   4.668
  582SOL    HW1 1565   1.195   0.295   4.655
  582SOL    HW2 1566   1.343   0.291   4.724
  583SOL     OW 1567   1.576   1.662   4.031
  583SOL    HW1 1568   1.665   1.708   4.034
  583SOL    HW2 1569   1.555   1.638   3.936
  584SOL     OW 1570   0.991   0.410   4.966
  584SOL    HW1 1571   0.914   0.444   5.020
  584SOL    HW2 1572   0.957   0.359   4.887
  585SOL     OW 1573   1.041   0.701   4.153
  585SOL    HW1 1574   1.067   0.697   4.249
  585SOL    HW2 1575   0.956   0.650   4.139
  586SOL     OW 1576   0.076   0.811   4.513
  586SOL    HW1 1577   0.175   0.799   4.522
  586SOL    HW2 1578   0.052   0.906   4.534
  587SOL     OW 1579   0.130   1.821   5.295
  587SOL    HW1 1580   0.120   1.806   5.394
  587SOL    HW2 1581   0.044   1.857   5.259
  588SOL     OW 1582   0.865   0.348   3.919
  588SOL    HW1 1583   0.924   0.411   3.870
  588SOL    HW2 1584   0.884   0.254   3.890
  589SOL     OW 1585   1.362   1.144   4.269
  589SOL    HW1 1586   1.445   1.115   4.221
  589SOL    HW2 1587   1.313   1.211   4.213
  590SOL     OW 1588   0.550   0.196   4.609
  590SOL    HW1 1589   0.545   0.191   4.709
  590SOL    HW2 1590   0.552   0.292   4.580
  591SOL     OW 1591   1.008   1.456   4.201
  591SOL    HW1 1592   0.962   1.528   4.149
  591SOL    HW2 1593   1.004   1.476   4.299
  592SOL     OW 1594   0.351   1.801   4.577
  592SOL    HW1 1595   0.401   1.715   4.583
  592SOL    HW2 1596   0.416   1.878   4.574
  593SOL     OW 1597   1.795   1.066   4.597
  593SOL    HW1 1598   1.733   1.051   4.521
  593SOL    HW2 1599   1.743   1.077   4.682
  594SOL     OW 1600   0.321   0.943   3.966
  594SOL    HW1 1601   0.403   0.982   3.924
  594SOL    HW2 1602   0.294   0.861   3.917
  595SOL     OW 1603   1.458   0.735   4.452
  595SOL    HW1 1604   1.453   0.670   4.527
  595SOL    HW2 1605   1.538   0.794   4.465
  596SOL     OW 1606   1.111   1.776   3.961
  596SOL    HW1 1607   1.051   1.714   4.011
  596SOL    HW2 1608   1.142   1.732   3.876
  597SOL     OW 1609   1.632   1.377   3.805
  597SOL    HW1 1610   1.600   1.471   3.795
  597SOL    HW2 1611   1.556   1.314   3.793
  598SOL     OW 1612   0.464   1.743   4.047
  598SOL    HW1 1613   0.497   1.782   4.133
  598SOL    HW2 1614   0.540   1.736   3.982
  599SOL     OW 1615   1.400   0.107   4.150
  599SOL    HW1 1616   1.376   0.070   4.060
  599SOL    HW2 1617   1.499   0.123   4.154
  600SOL     OW 1618   0.249   1.785   4.965
  600SOL    HW1 1619   0.306   1.720   5.015
  600SOL    HW2 1620   0.233   1.752   4.872
  601SOL     OW 1621   0.940   1.698   4.628
  601SOL    HW1 1622   1.020   1.641   4.649
  601SOL    HW2 1623   0.891   1.658   4.551
  602SOL     OW 1624   0.382   0.700   4.204
  602SOL    HW1 1625   0.427   0.610   4.201
  602SOL    HW2 1626   0.288   0.689   4.237
  603SOL     OW 1627   0.614   0.122   3.841
  603SOL    HW1 1628   0.712   0.100   3.848
  603SOL    HW2 1629   0.583   0.105   3.748
  604SOL     OW 1630   0.803   1.402   4.648
  604SOL    HW1 1631   0.893   1.416   4.606
  604SOL    HW2 1632   0.732   1.404   4.577
  605SOL     OW 1633   0.922   0.503   4.623
  605SOL    HW1 1634   0.897   0.494   4.527
  605SOL    HW2 1635   0.970   0.421   4.654
  606SOL     OW 1636   0.539   0.064   4.236
  606SOL    HW1 1637   0.458   0.065   4.294
  606SOL    HW2 1638   0.542   0.147   4.181
  607SOL     OW 1639   1.434   1.188   3.765
  607SOL    HW1 1640   1.466   1.112   3.822
  607SOL    HW2 1641   1.342   1.215   3.795
  608SOL     OW 1642   0.297   0.035   3.895
  608SOL    HW1 1643   0.346   0.119   3.874
  608SOL    HW2 1644   0.359  -0.030   3.940
  609SOL     OW 1645   0.935   0.236   4.204
  609SOL    HW1 1646   0.887   0.277   4.126
  609SOL    HW2 1647   1.034   0.234   4.185
  610SOL     OW 1648   1.227   1.570   4.517
  610SOL    HW1 1649   1.248   1.644   4.452
  610SOL    HW2 1650   1.295   1.570   4.590
  611SOL     OW 1651   0.459   1.152   4.465
  611SOL    HW1 1652   0.388   1.125   4.530
  611SOL    HW2 1653   0.433   1.124   4.372
  612SOL     OW 1654   1.271   1.797   4.315
  612SOL    HW1 1655   1.315   1.861   4.251
  612SOL    HW2 1656   1.221   1.849   4.385
  613SOL     OW 1657   1.032   0.549   3.740
  613SOL    HW1 1658   0.991   0.631   3.701
  613SOL    HW2 1659   1.096   0.575   3.813
  614SOL     OW 1660   0.561   0.222   4.871
  614SOL    HW1 1661   0.599   0.138   4.908
  614SOL    HW2 1662   0.473   0.241   4.915
  615SOL     OW 1663   0.866   0.454   4.366
  615SOL    HW1 1664   0.834   0.526   4.304
  615SOL    HW2 1665   0.890   0.373   4.313
  616SOL     OW 1666   1.017   0.039   4.477
  616SOL    HW1 1667   0.945   0.044   4.408
  616SOL    HW2 1668   0.993  -0.030   4.546
  617SOL     OW 1669   1.429   1.173   4.591
  617SOL    HW1 1670   1.374   1.089   4.584
  617SOL    HW2 1671   1.455   1.202   4.499
  618SOL     OW 1672   1.466   0.590   4.716
  618SOL    HW1 1673   1.436   0.495   4.723
  618SOL    HW2 1674   1.539   0.606   4.782
  619SOL     OW 1675   1.857   0.833   4.101
  619SOL    HW1 1676   1.899   0.769   4.165
  619SOL    HW2 1677   1.819   0.782   4.023
  620SOL     OW 1678   0.488   1.385   3.898
  620SOL    HW1 1679   0.401   1.370   3.945
  620SOL    HW2 1680   0.471   1.411   3.803
  621SOL     OW 1681   1.664   1.280   4.381
  621SOL    HW1 1682   1.763   1.288   4.395
  621SOL    HW2 1683   1.619   1.364   4.412
  622SOL     OW 1684   1.390   0.575   3.802
  622SOL    HW1 1685   1.336   0.554   3.883
  622SOL    HW2 1686   1.481   0.534   3.811
  623SOL     OW 1687   0.527   0.256   4.052
  623SOL    HW1 1688   0.554   0.197   3.977
  623SOL    HW2 1689   0.527   0.351   4.021
  624SOL     OW 1690   1.111   1.195   4.824
  624SOL    HW1 1691   1.071   1.239   4.905
  624SOL    HW2 1692   1.070   1.232   4.741
  625SOL     OW 1693   1.638   1.099   4.803
  625SOL    HW1 1694   1.643   1.180   4.862
  625SOL    HW2 1695   1.552   1.101   4.752
  626SOL     OW 1696   0.705   1.050   4.092
  626SOL    HW1 1697   0.691   1.057   4.191
  626SOL    HW2 1698   0.789   0.999   4.074
  627SOL     OW 1699   0.410   0.813   4.975
  627SOL    HW1 1700   0.496   0.825   5.025
  627SOL    HW2 1701   0.368   0.726   5.002
  628SOL     OW 1702   1.274   0.386   4.986
  628SOL    HW1 1703   1.295   0.460   5.050
  628SOL    HW2 1704   1.185   0.403   4.943
  629SOL     OW 1705   0.367   1.100   4.225
  629SOL    HW1 1706   0.360   1.183   4.169
  629SOL    HW2 1707   0.371   1.020   4.165
  630SOL     OW 1708   0.566   0.537   4.589
  630SOL    HW1 1709   0.578   0.603   4.515
  630SOL    HW2 1710   0.612   0.571   4.672
  631SOL     OW 1711   1.252   1.348   4.112
  631SOL    HW1 1712   1.302   1.425   4.152
  631SOL    HW2 1713   1.157   1.350   4.144
  632SOL     OW 1714   1.272   1.445   4.866
  632SOL    HW1 1715   1.319   1.458   4.953
  632SOL    HW2 1716   1.206   1.371   4.875
  633SOL     OW 1717   1.582   0.639   4.196
  633SOL    HW1 1718   1.551   0.700   4.269
  633SOL    HW2 1719   1.632   0.691   4.127
  634SOL     OW 1720   0.354   1.510   5.053
  634SOL    HW1 1721   0.333   1.466   4.966
  634SOL    HW2 1722   0.451   1.536   5.056
  635SOL     OW 1723   0.573   0.870   4.753
  635SOL    HW1 1724   0.617   0.959   4.744
  635SOL    HW2 1725   0.510   0.870   4.830
  636SOL     OW 1726   1.360   0.862   4.769
  636SOL    HW1 1727   1.285   0.862   4.703
  636SOL    HW2 1728   1.397   0.770   4.778
  637SOL     OW 1729   1.209   0.525   3.999
  637SOL    HW1 1730   1.222   0.441   4.053
  637SOL    HW2 1731   1.180   0.599   4.059
  638SOL     OW 1732   0.307   0.213   4.955
  638SOL    HW1 1733   0.284   0.250   5.045
  638SOL    HW2 1734   0.277   0.118   4.949
  639SOL     OW 1735   0.037   1.310   5.006
  639SOL    HW1 1736   0.090   1.261   5.074
  639SOL    HW2 1737   0.059   1.408   5.011
  640SOL     OW 1738   0.732   0.634   4.788
  640SOL    HW1 1739   0.791   0.608   4.712
  640SOL    HW2 1740   0.704   0.730   4.777
  641SOL     OW 1741   0.307   0.063   4.342
  641SOL    HW1 1742   0.296   0.157   4.375
  641SOL    HW2 1743   0.302   0.000   4.419
  642SOL     OW 1744   1.622   0.367   4.098
  642SOL    HW1 1745   1.624   0.291   4.162
  642SOL    HW2 1746   1.574   0.444   4.138
  643SOL     OW 1747   1.023   0.766   4.690
  643SOL    HW1 1748   1.038   0.787   4.786
  643SOL    HW2 1749   0.993   0.671   4.681
  644SOL     OW 1750   1.540   0.274   3.849
  644SOL    HW1 1751   1.479   0.199   3.872
  644SOL    HW2 1752   1.562   0.326   3.932
  645SOL     OW 1753   1.303   0.838   3.766
  645SOL    HW1 1754   1.337   0.745   3.781
  645SOL    HW2 1755   1.321   0.865   3.671
  646SOL     OW 1756   1.068   1.333   4.573
  646SOL    HW1 1757   1.075   1.249   4.518
  646SOL    HW2 1758   1.130   1.402   4.537
  647SOL     OW 1759   0.319   0.810   4.673
  647SOL    HW1 1760   0.412   0.846   4.678
  647SOL    HW2 1761   0.313   0.725   4.725
  648SOL     OW 1762   0.339   0.509   4.730
  648SOL    HW1 1763   0.287   0.426   4.713
  648SOL    HW2 1764   0.416   0.514   4.666
  649SOL     OW 1765   1.160   0.207   5.201
  649SOL    HW1 1766   1.160   0.271   5.278
  649SOL    HW2 1767   1.188   0.255   5.118
  650SOL     OW 1768   0.008   1.326   3.924
  650SOL    HW1 1769  -0.085   1.347   3.893
  650SOL    HW2 1770   0.018   1.227   3.937
  651SOL     OW 1771   0.088   1.801   4.651
  651SOL    HW1 1772   0.046   1.715   4.624
  651SOL    HW2 1773   0.182   1.804   4.617
  652SOL     OW 1774   0.504   1.568   4.634
  652SOL    HW1 1775   0.570   1.642   4.643
  652SOL    HW2 1776   0.548   1.489   4.592
  653SOL     OW 1777   1.002   0.796   4.962
  653SOL    HW1 1778   1.043   0.764   5.048
  653SOL    HW2 1779   0.906   0.769   4.959
  654SOL     OW 1780   0.040   0.544   4.838
  654SOL    HW1 1781   0.125   0.511   4.797
  654SOL    HW2 1782   0.053   0.559   4.936
  655SOL     OW 1783   0.815   0.572   4.049
  655SOL    HW1 1784   0.822   0.483   4.003
  655SOL    HW2 1785   0.721   0.606   4.041
  656SOL     OW 1786   1.657   0.604   4.930
  656SOL    HW1 1787   1.619   0.535   4.992
  656SOL    HW2 1788   1.739   0.568   4.886
  657SOL     OW 1789   0.671   0.464   4.993
  657SOL    HW1 1790   0.637   0.375   4.963
  657SOL    HW2 1791   0.697   0.518   4.913
  658SOL     OW 1792   0.930   1.678   5.189
  658SOL    HW1 1793   0.906   1.660   5.094
  658SOL    HW2 1794   0.960   1.772   5.199
  659SOL     OW 1795   0.473   0.500   3.915
  659SOL    HW1 1796   0.534   0.580   3.919
  659SOL    HW2 1797   0.378   0.531   3.922
  660SOL     OW 1798   1.347   1.059   4.958
  660SOL    HW1 1799   1.371   0.996   4.884
  660SOL    HW2 1800   1.257   1.099   4.940
  661SOL     OW 1801   1.302   0.855   4.033
  661SOL    HW1 1802   1.216   0.824   4.075
  661SOL    HW2 1803   1.298   0.841   3.934
  662SOL     OW 1804   1.759   1.747   4.878
  662SOL    HW1 1805   1.820   1.777   4.805
  662SOL    HW2 1806   1.721   1.658   4.856
  663SOL     OW 1807   1.252   1.731   4.852
  663SOL    HW1 1808   1.336   1.736   4.798
  663SOL    HW2 1809   1.229   1.635   4.870
  664SOL     OW 1810   0.083   1.258   4.746
  664SOL    HW1 1811   0.078   1.257   4.846
  664SOL    HW2 1812   0.000   1.217   4.708
  665SOL     OW 1813   1.726   0.135   4.247
  665SOL    HW1 1814   1.799   0.118   4.180
  665SOL    HW2 1815   1.695   0.048   4.285
  666SOL     OW 1816   1.388   1.573   4.201
  666SOL    HW1 1817   1.455   1.585   4.127
  666SOL    HW2 1818   1.348   1.662   4.224
  667SOL     OW 1819   1.280   0.927   4.396
  667SOL    HW1 1820   1.340   0.846   4.398
  667SOL    HW2 1821   1.320   0.996   4.336
  668SOL     OW 1822   0.672   1.616   3.878
  668SOL    HW1 1823   0.681   1.626   3.779
  668SOL    HW2 1824   0.632   1.527   3.899
  669SOL     OW 1825   1.650   1.720   5.118
  669SOL    HW1 1826   1.703   1.730   5.034
  669SOL    HW2 1827   1.623   1.810   5.152
  670SOL     OW 1828   1.841   0.175   4.687
  670SOL    HW1 1829   1.880   0.090   4.651
  670SOL    HW2 1830   1.743   0.177   4.668
  671SOL     OW 1831   0.263   0.326   4.444
  671SOL    HW1 1832   0.184   0.377   4.410
  671SOL    HW2 1833   0.254   0.311   4.542
  672SOL     OW 1834   1.194   1.612   3.755
  672SOL    HW1 1835   1.200   1.519   3.792
  672SOL    HW2 1836   1.135   1.612   3.675
  673SOL     OW 1837   0.822   1.002   5.096
  673SOL    HW1 1838   0.862   1.001   5.004
  673SOL    HW2 1839   0.832   1.094   5.136
  674SOL     OW 1840   0.916   0.910   4.015
  674SOL    HW1 1841   0.979   0.948   3.947
  674SOL    HW2 1842   0.956   0.827   4.054
  675SOL     OW 1843   1.504   1.607   3.768
  675SOL    HW1 1844   1.412   1.644   3.775
  675SOL    HW2 1845   1.542   1.627   3.678
  676SOL     OW 1846   1.039   1.098   4.420
  676SOL    HW1 1847   0.969   1.051   4.474
  676SOL    HW2 1848   1.098   1.030   4.377
  677SOL     OW 1849   1.014   0.236   4.695
  677SOL    HW1 1850   1.006   0.200   4.602
  677SOL    HW2 1851   1.012   0.160   4.760
  678SOL     OW 1852   0.590   1.487   4.215
  678SOL    HW1 1853   0.632   1.429   4.145
  678SOL    HW2 1854   0.546   1.566   4.171
  679SOL     OW 1855   1.709   0.385   5.105
  679SOL    HW1 1856   1.782   0.454   5.109
  679SOL    HW2 1857   1.737   0.310   5.046
  680SOL     OW 1858   0.255   1.348   4.014
  680SOL    HW1 1859   0.159   1.349   3.987
  680SOL    HW2 1860   0.267   1.401   4.098
  681SOL     OW 1861   0.075   0.345   3.757
  681SOL    HW1 1862  -0.017   0.317   3.728
  681SOL    HW2 1863   0.106   0.422   3.701
  682SOL     OW 1864   0.072   0.166   4.042
  682SOL    HW1 1865   0.055   0.249   3.988
  682SOL    HW2 1866   0.162   0.129   4.020
  683SOL     OW 1867   1.183   1.335   3.843
  683SOL    HW1 1868   1.084   1.324   3.845
  683SOL    HW2 1869   1.217   1.350   3.936
  684SOL     OW 1870   1.493   1.767   4.683
  684SOL    HW1 1871   1.526   1.831   4.614
  684SOL    HW2 1872   1.559   1.761   4.758
  685SOL     OW 1873   1.450   1.220   5.357
  685SOL    HW1 1874   1.441   1.210   5.456
  685SOL    HW2 1875   1.546   1.213   5.331
  686SOL     OW 1876   1.674   0.883   4.978
  686SOL    HW1 1877   1.647   0.794   4.941
  686SOL    HW2 1878   1.675   0.951   4.905
  687SOL     OW 1879   1.225   0.325   4.173
  687SOL    HW1 1880   1.290   0.251   4.162
  687SOL    HW2 1881   1.245   0.375   4.257
  688SOL     OW 1882   0.594   0.745   4.376
  688SOL    HW1 1883   0.644   0.830   4.357
  688SOL    HW2 1884   0.506   0.747   4.328
  689SOL     OW 1885   1.730   0.934   5.241
  689SOL    HW1 1886   1.768   1.025   5.256
  689SOL    HW2 1887   1.722   0.917   5.142
  690SOL     OW 1888   0.859   1.374   3.740
  690SOL    HW1 1889   0.813   1.389   3.828
  690SOL    HW2 1890   0.903   1.459   3.710
  691SOL     OW 1891   0.661   1.790   4.677
  691SOL    HW1 1892   0.615   1.878   4.664
  691SOL    HW2 1893   0.760   1.802   4.670
  692SOL     OW 1894   0.859   0.956   4.585
  692SOL    HW1 1895   0.913   0.887   4.633
  692SOL    HW2 1896   0.827   1.025   4.651
  693SOL     OW 1897   1.083   0.984   3.811
  693SOL    HW1 1898   1.060   1.037   3.729
  693SOL    HW2 1899   1.164   0.928   3.792
  694SOL     OW 1900   1.861   1.569   4.575
  694SOL    HW1 1901   1.790   1.557   4.505
  694SOL    HW2 1902   1.862   1.490   4.635
  695SOL     OW 1903   0.079   1.240   4.377
  695SOL    HW1 1904   0.078   1.193   4.465
  695SOL    HW2 1905   0.161   1.212   4.326
  696SOL     OW 1906   1.824   0.192   4.951
  696SOL    HW1 1907   1.820   0.102   4.995
  696SOL    HW2 1908   1.827   0.181   4.852
  697SOL     OW 1909   0.428   0.424   4.244
  697SOL    HW1 1910   0.458   0.352   4.182
  697SOL    HW2 1911   0.389   0.384   4.327
  698SOL     OW 1912   1.705   1.487   4.828
  698SOL    HW1 1913   1.612   1.462   4.801
  698SOL    HW2 1914   1.731   1.437   4.910
  699SOL     OW 1915   0.812   1.586   4.411
  699SOL    HW1 1916   0.844   1.596   4.317
  699SOL    HW2 1917   0.733   1.524   4.413
  700SOL     OW 1918   1.424   0.214   4.836
  700SOL    HW1 1919   1.476   0.149   4.891
  700SOL    HW2 1920   1.375   0.277   4.897
  701SOL     OW 1921   1.001   0.034   4.878
  701SOL    HW1 1922   0.938  -0.038   4.847
  701SOL    HW2 1923   1.094  -0.002   4.878
  702SOL     OW 1924   0.770   1.330   4.025
  702SOL    HW1 1925   0.724   1.243   4.042
  702SOL    HW2 1926   0.861   1.327   4.066
  703SOL     OW 1927   1.352   0.052   3.892
  703SOL    HW1 1928   1.387   0.011   3.808
  703SOL    HW2 1929   1.262   0.014   3.912
  704SOL     OW 1930   1.300   0.453   4.415
  704SOL    HW1 1931   1.241   0.533   4.419
  704SOL    HW2 1932   1.315   0.418   4.508
  705SOL     OW 1933   1.593   0.221   4.606
  705SOL    HW1 1934   1.509   0.220   4.660
  705SOL    HW2 1935   1.595   0.304   4.550
  706SOL     OW 1936   0.039   1.077   4.024
  706SOL    HW1 1937   0.138   1.066   4.015
  706SOL    HW2 1938  -0.001   0.991   4.056
  707SOL     OW 1939   0.875   1.646   4.061
  707SOL    HW1 1940   0.798   1.611   4.007
  707SOL    HW2 1941   0.843   1.717   4.123
  708SOL     OW 1942   0.230   2.490   0.113
  708SOL    HW1 1943   0.137   2.488   0.150
  708SOL    HW2 1944   0.231   2.451   0.021
  709SOL     OW 1945   0.225   2.137   0.996
  709SOL    HW1 1946   0.260   2.120   1.088
  709SOL    HW2 1947   0.137   2.092   0.984
  710SOL     OW 1948   0.019   2.230   0.647
  710SOL    HW1 1949  -0.063   2.273   0.686
  710SOL    HW2 1950  -0.009   2.157   0.584
  711SOL     OW 1951   0.569   3.137   1.165
  711SOL    HW1 1952   0.476   3.130   1.128
  711SOL    HW2 1953   0.580   3.226   1.209
  712SOL     OW 1954   1.555   3.373   0.703
  712SOL    HW1 1955   1.498   3.357   0.784
  712SOL    HW2 1956   1.496   3.383   0.623
  713SOL     OW 1957   1.135   2.565   0.717
  713SOL    HW1 1958   1.192   2.643   0.692
  713SOL    HW2 1959   1.075   2.591   0.793
  714SOL     OW 1960   1.755   2.469   0.231
  714SOL    HW1 1961   1.743   2.456   0.132
  714SOL    HW2 1962   1.725   2.388   0.280
  715SOL     OW 1963   0.768   3.006   1.023
  715SOL    HW1 1964   0.690   3.023   1.083
  715SOL    HW2 1965   0.802   3.093   0.987
  716SOL     OW 1966   0.850   2.660   1.823
  716SOL    HW1 1967   0.846   2.736   1.888
  716SOL    HW2 1968   0.872   2.696   1.732
  717SOL     OW 1969   0.685   2.874   0.665
  717SOL    HW1 1970   0.754   2.858   0.735
  717SOL    HW2 1971   0.612   2.931   0.703
  718SOL     OW 1972   0.686   3.023   1.803
  718SOL    HW1 1973   0.746   3.102   1.817
  718SOL    HW2 1974   0.600   3.054   1.762
  719SOL     OW 1975   0.335   3.297   1.061
  719SOL    HW1 1976   0.257   3.266   1.008
  719SOL    HW2 1977   0.393   3.355   1.004
  720SOL     OW 1978   1.460   3.367   1.339
  720SOL    HW1 1979   1.484   3.461   1.365
  720SOL    HW2 1980   1.444   3.313   1.421
  721SOL     OW 1981   0.438   2.254   1.499
  721SOL    HW1 1982   0.520   2.198   1.508
  721SOL    HW2 1983   0.357   2.196   1.503
  722SOL     OW 1984   1.603   2.309   0.737
  722SOL    HW1 1985   1.529   2.355   0.687
  722SOL    HW2 1986   1.654   2.377   0.790
  723SOL     OW 1987   0.231   3.575   0.483
  723SOL    HW1 1988   0.265   3.652   0.537
  723SOL    HW2 1989   0.275   3.575   0.393
  724SOL     OW 1990   1.127   3.203   1.690
  724SOL    HW1 1991   1.174   3.203   1.778
  724SOL    HW2 1992   1.079   3.116   1.679
  725SOL     OW 1993   0.230   3.296   0.538
  725SOL    HW1 1994   0.204   3.392   0.538
  725SOL    HW2 1995   0.159   3.242   0.583
  726SOL     OW 1996   0.240   2.953   0.886
  726SOL    HW1 1997   0.254   2.869   0.938
  726SOL    HW2 1998   0.185   3.017   0.941
  727SOL     OW 1999   0.620   3.648   1.439
  727SOL    HW1 2000   0.528   3.631   1.474
  727SOL    HW2 2001   0.648   3.740   1.465
  728SOL     OW 2002   0.606   2.826   0.123
  728SOL    HW1 2003   0.613   2.910   0.069
  728SOL    HW2 2004   0.652   2.839   0.211
  729SOL     OW 2005   1.594   1.976   1.480
  729SOL    HW1 2006   1.576   2.043   1.408
  729SOL    HW2 2007   1.591   2.022   1.569
  730SOL     OW 2008   0.122   2.505   0.563
  730SOL    HW1 2009   0.077   2.417   0.580
  730SOL    HW2 2010   0.121   2.559   0.647
  731SOL     OW 2011   1.842   3.629   0.359
  731SOL    HW1 2012   1.896   3.600   0.439
  731SOL    HW2 2013   1.872   3.719   0.330
  732SOL     OW 2014   0.027   3.458   0.117
  732SOL    HW1 2015   0.008   3.362   0.138
  732SOL    HW2 2016  -0.006   3.516   0.192
  733SOL     OW 2017   1.689   2.784   0.612
  733SOL    HW1 2018   1.784   2.755   0.620
  733SOL    HW2 2019   1.681   2.849   0.537
  734SOL     OW 2020   1.641   2.970   0.432
  734SOL    HW1 2021   1.727   2.972   0.380
  734SOL    HW2 2022   1.655   3.017   0.520
  735SOL     OW 2023   0.113   2.599   1.597
  735SOL    HW1 2024   0.201   2.586   1.642
  735SOL    HW2 2025   0.100   2.696   1.575
  736SOL     OW 2026   0.613   3.227   0.726
  736SOL    HW1 2027   0.564   3.140   0.735
  736SOL    HW2 2028   0.590   3.270   0.639
  737SOL     OW 2029   1.293   3.090   1.423
  737SOL    HW1 2030   1.330   3.017   1.365
  737SOL    HW2 2031   1.345   3.095   1.508
  738SOL     OW 2032   0.809   1.866   0.502
  738SOL    HW1 2033   0.849   1.957   0.493
  738SOL    HW2 2034   0.709   1.874   0.508
  739SOL     OW 2035   0.197   2.838   1.264
  739SOL    HW1 2036   0.286   2.793   1.250
  739SOL    HW2 2037   0.124   2.773   1.245
  740SOL     OW 2038   1.525   2.861   0.190
  740SOL    HW1 2039   1.462   2.785   0.203
  740SOL    HW2 2040   1.573   2.879   0.276
  741SOL     OW 2041   1.187   3.654   1.616
  741SOL    HW1 2042   1.211   3.714   1.540
  741SOL    HW2 2043   1.194   3.559   1.586
  742SOL     OW 2044   0.317   2.113   1.801
  742SOL    HW1 2045   0.388   2.184   1.807
  742SOL    HW2 2046   0.229   2.152   1.829
  743SOL     OW 2047   1.466   3.279   0.953
  743SOL    HW1 2048   1.407   3.285   1.033
  743SOL    HW2 2049   1.451   3.191   0.907
  744SOL     OW 2050   1.667   3.576   0.572
  744SOL    HW1 2051   1.626   3.553   0.484
  744SOL    HW2 2052   1.649   3.502   0.637
  745SOL     OW 2053   0.598   2.591   0.270
  745SOL    HW1 2054   0.622   2.660   0.202
  745SOL    HW2 2055   0.520   2.624   0.324
  746SOL     OW 2056   1.281   2.207   0.944
  746SOL    HW1 2057   1.195   2.157   0.931
  746SOL    HW2 2058   1.343   2.153   1.000
  747SOL     OW 2059   1.576   3.524   0.307
  747SOL    HW1 2060   1.665   3.570   0.310
  747SOL    HW2 2061   1.555   3.500   0.212
  748SOL     OW 2062   0.807   2.467   1.465
  748SOL    HW1 2063   0.760   2.464   1.554
  748SOL    HW2 2064   0.756   2.412   1.399
  749SOL     OW 2065   1.394   2.331   1.674
  749SOL    HW1 2066   1.374   2.374   1.762
  749SOL    HW2 2067   1.472   2.269   1.683
  750SOL     OW 2068   0.973   2.752   1.572
  750SOL    HW1 2069   1.019   2.668   1.543
  750SOL    HW2 2070   0.917   2.786   1.497
  751SOL     OW 2071   0.991   2.272   1.242
  751SOL    HW1 2072   0.914   2.306   1.296
  751SOL    HW2 2073   0.957   2.221   1.163
  752SOL     OW 2074   1.041   2.563   0.429
  752SOL    HW1 2075   1.067   2.559   0.525
  752SOL    HW2 2076   0.956   2.512   0.415
  753SOL     OW 2077   0.076   2.673   0.789
  753SOL    HW1 2078   0.175   2.661   0.798
  753SOL    HW2 2079   0.052   2.768   0.810
  754SOL     OW 2080   0.130   3.683   1.571
  754SOL    HW1 2081   0.120   3.668   1.670
  754SOL    HW2 2082   0.044   3.719   1.535
  755SOL     OW 2083   0.865   2.210   0.195
  755SOL    HW1 2084   0.924   2.273   0.146
  755SOL    HW2 2085   0.884   2.116   0.166
  756SOL     OW 2086   1.719   2.447   1.831
  756SOL    HW1 2087   1.693   2.536   1.795
  756SOL    HW2 2088   1.717   2.379   1.758
  757SOL     OW 2089   1.362   3.006   0.545
  757SOL    HW1 2090   1.445   2.977   0.497
  757SOL    HW2 2091   1.313   3.073   0.489
  758SOL     OW 2092   0.550   2.058   0.885
  758SOL    HW1 2093   0.545   2.053   0.985
  758SOL    HW2 2094   0.552   2.154   0.856
  759SOL     OW 2095   1.008   3.318   0.477
  759SOL    HW1 2096   0.962   3.390   0.425
  759SOL    HW2 2097   1.004   3.338   0.575
  760SOL     OW 2098   0.351   3.663   0.853
  760SOL    HW1 2099   0.401   3.577   0.859
  760SOL    HW2 2100   0.416   3.740   0.850
  761SOL     OW 2101   1.795   2.928   0.873
  761SOL    HW1 2102   1.733   2.913   0.797
  761SOL    HW2 2103   1.743   2.939   0.958
  762SOL     OW 2104   1.227   3.412   1.506
  762SOL    HW1 2105   1.233   3.335   1.570
  762SOL    HW2 2106   1.175   3.386   1.426
  763SOL     OW 2107   0.321   2.805   0.242
  763SOL    HW1 2108   0.403   2.844   0.200
  763SOL    HW2 2109   0.294   2.723   0.193
  764SOL     OW 2110   1.458   2.597   0.728
  764SOL    HW1 2111   1.453   2.532   0.803
  764SOL    HW2 2112   1.538   2.656   0.741
  765SOL     OW 2113   0.461   3.128   1.727
  765SOL    HW1 2114   0.411   3.129   1.641
  765SOL    HW2 2115   0.398   3.110   1.803
  766SOL     OW 2116   1.111   3.638   0.237
  766SOL    HW1 2117   1.051   3.576   0.287
  766SOL    HW2 2118   1.142   3.594   0.152
  767SOL     OW 2119   0.202   2.147   1.498
  767SOL    HW1 2120   0.122   2.207   1.485
  767SOL    HW2 2121   0.192   2.098   1.584
  768SOL     OW 2122   1.632   3.239   0.081
  768SOL    HW1 2123   1.600   3.333   0.071
  768SOL    HW2 2124   1.556   3.176   0.069
  769SOL     OW 2125   0.464   3.605   0.323
  769SOL    HW1 2126   0.497   3.644   0.409
  769SOL    HW2 2127   0.540   3.598   0.258
  770SOL     OW 2128   1.400   1.969   0.426
  770SOL    HW1 2129   1.376   1.932   0.336
  770SOL    HW2 2130   1.499   1.985   0.430
  771SOL     OW 2131   0.249   3.647   1.241
  771SOL    HW1 2132   0.306   3.582   1.291
  771SOL    HW2 2133   0.233   3.614   1.148
  772SOL     OW 2134   0.940   3.560   0.904
  772SOL    HW1 2135   1.020   3.503   0.925
  772SOL    HW2 2136   0.891   3.520   0.827
  773SOL     OW 2137   0.382   2.562   0.480
  773SOL    HW1 2138   0.427   2.472   0.477
  773SOL    HW2 2139   0.288   2.551   0.513
  774SOL     OW 2140   1.547   2.084   1.729
  774SOL    HW1 2141   1.542   2.121   1.821
  774SOL    HW2 2142   1.475   2.015   1.717
  775SOL     OW 2143   0.781   2.126   1.749
  775SOL    HW1 2144   0.848   2.065   1.792
  775SOL    HW2 2145   0.708   2.145   1.814
  776SOL     OW 2146   0.888   3.376   1.195
  776SOL    HW1 2147   0.865   3.351   1.101
  776SOL    HW2 2148   0.949   3.307   1.234
  777SOL     OW 2149   1.351   2.452   1.433
  777SOL    HW1 2150   1.379   2.409   1.518
  777SOL    HW2 2151   1.376   2.548   1.434
  778SOL     OW 2152   0.803   3.264   0.924
  778SOL    HW1 2153   0.893   3.278   0.882
  778SOL    HW2 2154   0.732   3.266   0.853
  779SOL     OW 2155   0.922   2.365   0.899
  779SOL    HW1 2156   0.897   2.356   0.803
  779SOL    HW2 2157   0.970   2.283   0.930
  780SOL     OW 2158   0.539   1.926   0.512
  780SOL    HW1 2159   0.458   1.927   0.570
  780SOL    HW2 2160   0.542   2.009   0.457
  781SOL     OW 2161   1.434   3.050   0.041
  781SOL    HW1 2162   1.466   2.974   0.098
  781SOL    HW2 2163   1.342   3.077   0.071
  782SOL     OW 2164   0.297   1.897   0.171
  782SOL    HW1 2165   0.346   1.981   0.150
  782SOL    HW2 2166   0.359   1.832   0.216
  783SOL     OW 2167   0.935   2.098   0.480
  783SOL    HW1 2168   0.887   2.139   0.402
  783SOL    HW2 2169   1.034   2.096   0.461
  784SOL     OW 2170   1.076   2.545   1.464
  784SOL    HW1 2171   0.996   2.484   1.467
  784SOL    HW2 2172   1.157   2.492   1.440
  785SOL     OW 2173   1.227   3.432   0.793
  785SOL    HW1 2174   1.248   3.506   0.728
  785SOL    HW2 2175   1.295   3.432   0.866
  786SOL     OW 2176   0.459   3.014   0.741
  786SOL    HW1 2177   0.388   2.987   0.806
  786SOL    HW2 2178   0.433   2.986   0.648
  787SOL     OW 2179   1.271   3.659   0.591
  787SOL    HW1 2180   1.315   3.723   0.527
  787SOL    HW2 2181   1.221   3.711   0.661
  788SOL     OW 2182   1.032   2.411   0.016
  788SOL    HW1 2183   0.991   2.493  -0.023
  788SOL    HW2 2184   1.096   2.437   0.089
  789SOL     OW 2185   0.078   2.418   1.386
  789SOL    HW1 2186   0.170   2.417   1.345
  789SOL    HW2 2187   0.072   2.492   1.453
  790SOL     OW 2188   0.561   2.084   1.147
  790SOL    HW1 2189   0.599   2.000   1.184
  790SOL    HW2 2190   0.473   2.103   1.191
  791SOL     OW 2191   0.866   2.316   0.642
  791SOL    HW1 2192   0.834   2.388   0.580
  791SOL    HW2 2193   0.890   2.235   0.589
  792SOL     OW 2194   1.017   1.901   0.753
  792SOL    HW1 2195   0.945   1.906   0.684
  792SOL    HW2 2196   0.993   1.832   0.822
  793SOL     OW 2197   1.429   3.035   0.867
  793SOL    HW1 2198   1.374   2.951   0.860
  793SOL    HW2 2199   1.455   3.064   0.775
  794SOL     OW 2200   1.466   2.452   0.992
  794SOL    HW1 2201   1.436   2.357   0.999
  794SOL    HW2 2202   1.539   2.468   1.058
  795SOL     OW 2203   1.857   2.695   0.377
  795SOL    HW1 2204   1.899   2.631   0.441
  795SOL    HW2 2205   1.819   2.644   0.299
  796SOL     OW 2206   0.488   3.247   0.174
  796SOL    HW1 2207   0.401   3.232   0.221
  796SOL    HW2 2208   0.471   3.273   0.079
  797SOL     OW 2209   1.664   3.142   0.657
  797SOL    HW1 2210   1.763   3.150   0.671
  797SOL    HW2 2211   1.619   3.226   0.688
  798SOL     OW 2212   1.390   2.437   0.078
  798SOL    HW1 2213   1.336   2.416   0.159
  798SOL    HW2 2214   1.481   2.396   0.087
  799SOL     OW 2215   0.527   2.118   0.328
  799SOL    HW1 2216   0.554   2.059   0.253
  799SOL    HW2 2217   0.527   2.213   0.297
  800SOL     OW 2218   1.754   3.085   1.588
  800SOL    HW1 2219   1.845   3.046   1.575
  800SOL    HW2 2220   1.762   3.181   1.612
  801SOL     OW 2221   1.064   3.209   1.340
  801SOL    HW1 2222   0.984   3.186   1.395
  801SOL    HW2 2223   1.147   3.183   1.389
  802SOL     OW 2224   1.592   3.491   1.625
  802SOL    HW1 2225   1.619   3.525   1.535
  802SOL    HW2 2226   1.671   3.453   1.671
  803SOL     OW 2227   1.111   3.057   1.100
  803SOL    HW1 2228   1.071   3.101   1.181
  803SOL    HW2 2229   1.070   3.094   1.017
  804SOL     OW 2230   1.638   2.961   1.079
  804SOL    HW1 2231   1.643   3.042   1.138
  804SOL    HW2 2232   1.552   2.963   1.028
  805SOL     OW 2233   0.915   1.951   1.402
  805SOL    HW1 2234   0.940   1.931   1.307
  805SOL    HW2 2235   0.987   2.007   1.444
  806SOL     OW 2236   0.980   2.978   1.719
  806SOL    HW1 2237   0.881   2.984   1.729
  806SOL    HW2 2238   1.003   2.898   1.663
  807SOL     OW 2239   0.705   2.912   0.368
  807SOL    HW1 2240   0.691   2.919   0.467
  807SOL    HW2 2241   0.789   2.861   0.350
  808SOL     OW 2242   0.410   2.675   1.251
  808SOL    HW1 2243   0.496   2.687   1.301
  808SOL    HW2 2244   0.368   2.588   1.278
  809SOL     OW 2245   1.274   2.248   1.262
  809SOL    HW1 2246   1.295   2.322   1.326
  809SOL    HW2 2247   1.185   2.265   1.219
  810SOL     OW 2248   0.064   3.426   1.331
  810SOL    HW1 2249   0.018   3.508   1.297
  810SOL    HW2 2250   0.162   3.445   1.340
  811SOL     OW 2251   0.367   2.962   0.501
  811SOL    HW1 2252   0.360   3.045   0.445
  811SOL    HW2 2253   0.371   2.882   0.441
  812SOL     OW 2254   0.566   2.399   0.865
  812SOL    HW1 2255   0.578   2.465   0.791
  812SOL    HW2 2256   0.612   2.433   0.948
  813SOL     OW 2257   1.252   3.210   0.388
  813SOL    HW1 2258   1.302   3.287   0.428
  813SOL    HW2 2259   1.157   3.212   0.420
  814SOL     OW 2260   1.272   3.307   1.142
  814SOL    HW1 2261   1.319   3.320   1.229
  814SOL    HW2 2262   1.206   3.233   1.151
  815SOL     OW 2263   1.582   2.501   0.472
  815SOL    HW1 2264   1.551   2.562   0.545
  815SOL    HW2 2265   1.632   2.553   0.403
  816SOL     OW 2266   0.354   3.372   1.329
  816SOL    HW1 2267   0.333   3.328   1.242
  816SOL    HW2 2268   0.451   3.398   1.332
  817SOL     OW 2269   0.402   2.613   1.598
  817SOL    HW1 2270   0.470   2.668   1.551
  817SOL    HW2 2271   0.442   2.525   1.625
  818SOL     OW 2272   1.587   2.641   1.670
  818SOL    HW1 2273   1.495   2.679   1.665
  818SOL    HW2 2274   1.647   2.688   1.605
  819SOL     OW 2275   1.013   1.967   1.770
  819SOL    HW1 2276   1.019   2.052   1.718
  819SOL    HW2 2277   1.045   1.891   1.713
  820SOL     OW 2278   0.504   1.912   1.740
  820SOL    HW1 2279   0.462   1.855   1.670
  820SOL    HW2 2280   0.438   1.981   1.772
  821SOL     OW 2281   0.573   2.732   1.029
  821SOL    HW1 2282   0.617   2.821   1.020
  821SOL    HW2 2283   0.510   2.732   1.106
  822SOL     OW 2284   1.360   2.724   1.045
  822SOL    HW1 2285   1.285   2.724   0.979
  822SOL    HW2 2286   1.397   2.632   1.054
  823SOL     OW 2287   1.209   2.387   0.275
  823SOL    HW1 2288   1.222   2.303   0.329
  823SOL    HW2 2289   1.180   2.461   0.335
  824SOL     OW 2290   0.307   2.075   1.231
  824SOL    HW1 2291   0.284   2.112   1.321
  824SOL    HW2 2292   0.277   1.980   1.225
  825SOL     OW 2293   0.037   3.172   1.282
  825SOL    HW1 2294   0.090   3.123   1.350
  825SOL    HW2 2295   0.059   3.270   1.287
  826SOL     OW 2296   0.732   2.496   1.064
  826SOL    HW1 2297   0.791   2.470   0.988
  826SOL    HW2 2298   0.704   2.592   1.053
  827SOL     OW 2299   1.728   2.797   1.854
  827SOL    HW1 2300   1.682   2.790   1.765
  827SOL    HW2 2301   1.666   2.841   1.920
  828SOL     OW 2302   0.307   1.925   0.618
  828SOL    HW1 2303   0.296   2.019   0.651
  828SOL    HW2 2304   0.302   1.862   0.695
  829SOL     OW 2305   1.622   2.229   0.374
  829SOL    HW1 2306   1.624   2.153   0.438
  829SOL    HW2 2307   1.574   2.306   0.414
  830SOL     OW 2308   1.023   2.628   0.966
  830SOL    HW1 2309   1.038   2.649   1.062
  830SOL    HW2 2310   0.993   2.533   0.957
  831SOL     OW 2311   0.980   3.435   1.700
  831SOL    HW1 2312   0.960   3.479   1.612
  831SOL    HW2 2313   1.019   3.344   1.684
  832SOL     OW 2314   1.859   3.380   1.605
  832SOL    HW1 2315   1.873   3.407   1.510
  832SOL    HW2 2316   1.942   3.402   1.658
  833SOL     OW 2317   0.350   2.760   1.804
  833SOL    HW1 2318   0.426   2.804   1.852
  833SOL    HW2 2319   0.385   2.713   1.722
  834SOL     OW 2320   1.540   2.136   0.125
  834SOL    HW1 2321   1.479   2.061   0.148
  834SOL    HW2 2322   1.562   2.188   0.208
  835SOL     OW 2323   1.303   2.700   0.042
  835SOL    HW1 2324   1.337   2.607   0.057
  835SOL    HW2 2325   1.321   2.727  -0.053
  836SOL     OW 2326   1.068   3.195   0.849
  836SOL    HW1 2327   1.075   3.111   0.794
  836SOL    HW2 2328   1.130   3.264   0.813
  837SOL     OW 2329   0.319   2.672   0.949
  837SOL    HW1 2330   0.412   2.708   0.954
  837SOL    HW2 2331   0.313   2.587   1.001
  838SOL     OW 2332   0.339   2.371   1.006
  838SOL    HW1 2333   0.287   2.288   0.989
  838SOL    HW2 2334   0.416   2.376   0.942
  839SOL     OW 2335   1.138   2.242   1.678
  839SOL    HW1 2336   1.093   2.305   1.742
  839SOL    HW2 2337   1.231   2.273   1.661
  840SOL     OW 2338   1.160   2.069   1.477
  840SOL    HW1 2339   1.160   2.133   1.554
  840SOL    HW2 2340   1.188   2.117   1.394
  841SOL     OW 2341   0.008   3.188   0.200
  841SOL    HW1 2342  -0.085   3.209   0.169
  841SOL    HW2 2343   0.018   3.089   0.213
  842SOL     OW 2344   0.088   3.663   0.927
  842SOL    HW1 2345   0.046   3.577   0.900
  842SOL    HW2 2346   0.182   3.666   0.893
  843SOL     OW 2347   0.504   3.430   0.910
  843SOL    HW1 2348   0.570   3.504   0.919
  843SOL    HW2 2349   0.548   3.351   0.868
  844SOL     OW 2350   1.002   2.658   1.238
  844SOL    HW1 2351   1.043   2.626   1.324
  844SOL    HW2 2352   0.906   2.631   1.235
  845SOL     OW 2353   0.040   2.406   1.114
  845SOL    HW1 2354   0.125   2.373   1.073
  845SOL    HW2 2355   0.053   2.421   1.212
  846SOL     OW 2356   0.189   2.382   1.722
  846SOL    HW1 2357   0.248   2.342   1.652
  846SOL    HW2 2358   0.131   2.453   1.681
  847SOL     OW 2359   1.369   2.812   1.660
  847SOL    HW1 2360   1.408   2.901   1.680
  847SOL    HW2 2361   1.379   2.792   1.563
  848SOL     OW 2362   0.815   2.434   0.325
  848SOL    HW1 2363   0.822   2.345   0.279
  848SOL    HW2 2364   0.721   2.468   0.317
  849SOL     OW 2365   1.657   2.466   1.206
  849SOL    HW1 2366   1.619   2.397   1.268
  849SOL    HW2 2367   1.739   2.430   1.162
  850SOL     OW 2368   0.252   3.426   1.744
  850SOL    HW1 2369   0.222   3.483   1.820
  850SOL    HW2 2370   0.245   3.329   1.770
  851SOL     OW 2371   0.671   2.326   1.269
  851SOL    HW1 2372   0.637   2.237   1.239
  851SOL    HW2 2373   0.697   2.380   1.189
  852SOL     OW 2374   0.930   3.540   1.465
  852SOL    HW1 2375   0.906   3.522   1.370
  852SOL    HW2 2376   0.960   3.634   1.475
  853SOL     OW 2377   0.473   2.362   0.191
  853SOL    HW1 2378   0.534   2.442   0.195
  853SOL    HW2 2379   0.378   2.393   0.198
  854SOL     OW 2380   0.159   2.999   1.466
  854SOL    HW1 2381   0.181   2.938   1.542
  854SOL    HW2 2382   0.169   2.950   1.380
  855SOL     OW 2383   1.347   2.921   1.234
  855SOL    HW1 2384   1.371   2.858   1.160
  855SOL    HW2 2385   1.257   2.961   1.216
  856SOL     OW 2386   1.302   2.717   0.309
  856SOL    HW1 2387   1.216   2.686   0.351
  856SOL    HW2 2388   1.298   2.703   0.210
  857SOL     OW 2389   1.759   3.609   1.154
  857SOL    HW1 2390   1.820   3.639   1.081
  857SOL    HW2 2391   1.721   3.520   1.132
  858SOL     OW 2392   1.252   3.593   1.128
  858SOL    HW1 2393   1.336   3.598   1.074
  858SOL    HW2 2394   1.229   3.497   1.146
  859SOL     OW 2395   0.083   3.120   1.022
  859SOL    HW1 2396   0.078   3.119   1.122
  859SOL    HW2 2397   0.000   3.079   0.984
  860SOL     OW 2398   0.688   3.524   1.716
  860SOL    HW1 2399   0.632   3.605   1.725
  860SOL    HW2 2400   0.740   3.528   1.630
  861SOL     OW 2401   0.903   1.948   0.133
  861SOL    HW1 2402   0.954   1.949   0.047
  861SOL    HW2 2403   0.959   1.906   0.204
  862SOL     OW 2404   1.726   1.997   0.523
  862SOL    HW1 2405   1.799   1.980   0.456
  862SOL    HW2 2406   1.695   1.910   0.561
  863SOL     OW 2407   1.388   3.435   0.477
  863SOL    HW1 2408   1.455   3.447   0.403
  863SOL    HW2 2409   1.348   3.524   0.500
  864SOL     OW 2410   0.130   3.656   1.851
  864SOL    HW1 2411   0.089   3.582   1.904
  864SOL    HW2 2412   0.194   3.707   1.909
  865SOL     OW 2413   1.280   2.789   0.672
  865SOL    HW1 2414   1.340   2.708   0.674
  865SOL    HW2 2415   1.320   2.858   0.612
  866SOL     OW 2416   0.830   3.135   1.422
  866SOL    HW1 2417   0.825   3.168   1.517
  866SOL    HW2 2418   0.744   3.154   1.376
  867SOL     OW 2419   0.672   3.478   0.154
  867SOL    HW1 2420   0.681   3.488   0.055
  867SOL    HW2 2421   0.632   3.389   0.175
  868SOL     OW 2422   1.650   3.582   1.394
  868SOL    HW1 2423   1.703   3.592   1.310
  868SOL    HW2 2424   1.623   3.672   1.428
  869SOL     OW 2425   1.841   2.037   0.963
  869SOL    HW1 2426   1.880   1.952   0.927
  869SOL    HW2 2427   1.743   2.039   0.944
  870SOL     OW 2428   0.263   2.188   0.720
  870SOL    HW1 2429   0.184   2.239   0.686
  870SOL    HW2 2430   0.254   2.173   0.818
  871SOL     OW 2431   1.194   3.474   0.031
  871SOL    HW1 2432   1.200   3.381   0.068
  871SOL    HW2 2433   1.135   3.474  -0.049
  872SOL     OW 2434   0.822   2.864   1.372
  872SOL    HW1 2435   0.862   2.863   1.280
  872SOL    HW2 2436   0.832   2.956   1.412
  873SOL     OW 2437   0.916   2.772   0.291
  873SOL    HW1 2438   0.979   2.810   0.223
  873SOL    HW2 2439   0.956   2.689   0.330
  874SOL     OW 2440   1.504   3.469   0.044
  874SOL    HW1 2441   1.412   3.506   0.051
  874SOL    HW2 2442   1.542   3.489  -0.046
  875SOL     OW 2443   0.372   3.150   1.490
  875SOL    HW1 2444   0.359   3.243   1.456
  875SOL    HW2 2445   0.288   3.098   1.477
  876SOL     OW 2446   1.614   3.154   1.289
  876SOL    HW1 2447   1.674   3.157   1.369
  876SOL    HW2 2448   1.539   3.218   1.302
  877SOL     OW 2449   1.039   2.960   0.696
  877SOL    HW1 2450   0.969   2.913   0.750
  877SOL    HW2 2451   1.098   2.892   0.653
  878SOL     OW 2452   1.014   2.098   0.971
  878SOL    HW1 2453   1.006   2.062   0.878
  878SOL    HW2 2454   1.012   2.022   1.036
  879SOL     OW 2455   0.590   3.349   0.491
  879SOL    HW1 2456   0.632   3.291   0.421
  879SOL    HW2 2457   0.546   3.428   0.447
  880SOL     OW 2458   1.709   2.247   1.381
  880SOL    HW1 2459   1.782   2.316   1.385
  880SOL    HW2 2460   1.737   2.172   1.322
  881SOL     OW 2461   0.255   3.210   0.290
  881SOL    HW1 2462   0.159   3.211   0.263
  881SOL    HW2 2463   0.267   3.263   0.374
  882SOL     OW 2464   0.105   2.875   1.726
  882SOL    HW1 2465   0.028   2.842   1.780
  882SOL    HW2 2466   0.190   2.845   1.768
  883SOL     OW 2467   0.672   2.065   1.489
  883SOL    HW1 2468   0.762   2.049   1.449
  883SOL    HW2 2469   0.680   2.070   1.588
  884SOL     OW 2470   0.075   2.207   0.033
  884SOL    HW1 2471  -0.017   2.179   0.004
  884SOL    HW2 2472   0.106   2.284  -0.023
  885SOL     OW 2473   1.440   2.718   1.398
  885SOL    HW1 2474   1.383   2.770   1.335
  885SOL    HW2 2475   1.536   2.730   1.374
  886SOL     OW 2476   0.072   2.028   0.318
  886SOL    HW1 2477   0.055   2.111   0.264
  886SOL    HW2 2478   0.162   1.991   0.296
  887SOL     OW 2479   1.183   3.197   0.119
  887SOL    HW1 2480   1.084   3.186   0.121
  887SOL    HW2 2481   1.217   3.212   0.212
  888SOL     OW 2482   0.613   2.704   1.431
  888SOL    HW1 2483   0.669   2.785   1.414
  888SOL    HW2 2484   0.672   2.624   1.434
  889SOL     OW 2485   1.493   3.629   0.959
  889SOL    HW1 2486   1.526   3.693   0.890
  889SOL    HW2 2487   1.559   3.623   1.034
  890SOL     OW 2488   0.716   2.427   1.708
  890SOL    HW1 2489   0.735   2.492   1.782
  890SOL    HW2 2490   0.776   2.347   1.717
  891SOL     OW 2491   1.450   3.082   1.633
  891SOL    HW1 2492   1.441   3.072   1.732
  891SOL    HW2 2493   1.546   3.075   1.607
  892SOL     OW 2494   0.390   3.603   1.560
  892SOL    HW1 2495   0.299   3.644   1.558
  892SOL    HW2 2496   0.383   3.509   1.592
  893SOL     OW 2497   1.674   2.745   1.254
  893SOL    HW1 2498   1.647   2.656   1.217
  893SOL    HW2 2499   1.675   2.813   1.181
  894SOL     OW 2500   1.225   2.187   0.449
  894SOL    HW1 2501   1.290   2.113   0.438
  894SOL    HW2 2502   1.245   2.237   0.533
  895SOL     OW 2503   0.594   2.607   0.652
  895SOL    HW1 2504   0.644   2.692   0.633
  895SOL    HW2 2505   0.506   2.609   0.604
  896SOL     OW 2506   1.777   2.204   1.642
  896SOL    HW1 2507   1.760   2.235   1.548
  896SOL    HW2 2508   1.693   2.167   1.680
  897SOL     OW 2509   1.730   2.796   1.517
  897SOL    HW1 2510   1.768   2.887   1.532
  897SOL    HW2 2511   1.722   2.779   1.418
  898SOL     OW 2512   0.859   3.236   0.016
  898SOL    HW1 2513   0.813   3.251   0.104
  898SOL    HW2 2514   0.903   3.321  -0.014
  899SOL     OW 2515   0.661   3.652   0.953
  899SOL    HW1 2516   0.615   3.740   0.940
  899SOL    HW2 2517   0.760   3.664   0.946
  900SOL     OW 2518   0.859   2.818   0.861
  900SOL    HW1 2519   0.913   2.749   0.909
  900SOL    HW2 2520   0.827   2.887   0.927
  901SOL     OW 2521   1.083   2.846   0.087
  901SOL    HW1 2522   1.060   2.899   0.005
  901SOL    HW2 2523   1.164   2.790   0.068
  902SOL     OW 2524   1.861   3.431   0.851
  902SOL    HW1 2525   1.790   3.419   0.781
  902SOL    HW2 2526   1.862   3.352   0.911
  903SOL     OW 2527   0.221   3.176   1.844
  903SOL    HW1 2528   0.156   3.103   1.823
  903SOL    HW2 2529   0.225   3.190   1.942
  904SOL     OW 2530   0.079   3.102   0.653
  904SOL    HW1 2531   0.078   3.055   0.741
  904SOL    HW2 2532   0.161   3.074   0.602
  905SOL     OW 2533   0.672   3.253   1.624
  905SOL    HW1 2534   0.594   3.203   1.662
  905SOL    HW2 2535   0.669   3.348   1.655
  906SOL     OW 2536   1.824   2.054   1.227
  906SOL    HW1 2537   1.820   1.964   1.271
  906SOL    HW2 2538   1.827   2.043   1.128
  907SOL     OW 2539   0.428   2.286   0.520
  907SOL    HW1 2540   0.458   2.214   0.458
  907SOL    HW2 2541   0.389   2.246   0.603
  908SOL     OW 2542   1.705   3.349   1.104
  908SOL    HW1 2543   1.612   3.324   1.077
  908SOL    HW2 2544   1.731   3.299   1.186
  909SOL     OW 2545   0.317   2.409   1.280
  909SOL    HW1 2546   0.355   2.350   1.352
  909SOL    HW2 2547   0.357   2.383   1.192
  910SOL     OW 2548   0.812   3.448   0.687
  910SOL    HW1 2549   0.844   3.458   0.593
  910SOL    HW2 2550   0.733   3.386   0.689
  911SOL     OW 2551   1.424   2.076   1.112
  911SOL    HW1 2552   1.476   2.011   1.167
  911SOL    HW2 2553   1.375   2.139   1.173
  912SOL     OW 2554   1.001   1.896   1.154
  912SOL    HW1 2555   0.938   1.824   1.123
  912SOL    HW2 2556   1.094   1.860   1.154
  913SOL     OW 2557   0.770   3.192   0.301
  913SOL    HW1 2558   0.724   3.105   0.318
  913SOL    HW2 2559   0.861   3.189   0.342
  914SOL     OW 2560   0.618   3.429   1.284
  914SOL    HW1 2561   0.613   3.511   1.341
  914SOL    HW2 2562   0.707   3.426   1.239
  915SOL     OW 2563   1.352   1.914   0.168
  915SOL    HW1 2564   1.387   1.873   0.084
  915SOL    HW2 2565   1.262   1.876   0.188
  916SOL     OW 2566   1.300   2.315   0.691
  916SOL    HW1 2567   1.241   2.395   0.695
  916SOL    HW2 2568   1.315   2.280   0.784
  917SOL     OW 2569   1.593   2.083   0.882
  917SOL    HW1 2570   1.509   2.082   0.936
  917SOL    HW2 2571   1.595   2.166   0.826
  918SOL     OW 2572   0.039   2.939   0.300
  918SOL    HW1 2573   0.138   2.928   0.291
  918SOL    HW2 2574  -0.001   2.853   0.332
  919SOL     OW 2575   0.875   3.508   0.337
  919SOL    HW1 2576   0.798   3.473   0.283
  919SOL    HW2 2577   0.843   3.579   0.399
  920SOL     OW 2578   0.230   2.490   1.975
  920SOL    HW1 2579   0.137   2.488   2.012
  920SOL    HW2 2580   0.231   2.451   1.883
  921SOL     OW 2581   0.225   2.137   2.858
  921SOL    HW1 2582   0.260   2.120   2.950
  921SOL    HW2 2583   0.137   2.092   2.846
  922SOL     OW 2584   0.019   2.230   2.509
  922SOL    HW1 2585  -0.063   2.273   2.548
  922SOL    HW2 2586  -0.009   2.157   2.446
  923SOL     OW 2587   0.569   3.137   3.027
  923SOL    HW1 2588   0.476   3.130   2.990
  923SOL    HW2 2589   0.580   3.226   3.071
  924SOL     OW 2590   1.555   3.373   2.565
  924SOL    HW1 2591   1.498   3.357   2.646
  924SOL    HW2 2592   1.496   3.383   2.485
  925SOL     OW 2593   1.755   2.469   2.093
  925SOL    HW1 2594   1.743   2.456   1.994
  925SOL    HW2 2595   1.725   2.388   2.142
  926SOL     OW 2596   0.768   3.006   2.885
  926SOL    HW1 2597   0.690   3.023   2.945
  926SOL    HW2 2598   0.802   3.093   2.849
  927SOL     OW 2599   0.850   2.660   3.685
  927SOL    HW1 2600   0.846   2.736   3.750
  927SOL    HW2 2601   0.872   2.696   3.594
  928SOL     OW 2602   0.685   2.874   2.527
  928SOL    HW1 2603   0.754   2.858   2.597
  928SOL    HW2 2604   0.612   2.931   2.565
  929SOL     OW 2605   0.686   3.023   3.665
  929SOL    HW1 2606   0.746   3.102   3.679
  929SOL    HW2 2607   0.600   3.054   3.624
  930SOL     OW 2608   0.335   3.297   2.923
  930SOL    HW1 2609   0.257   3.266   2.870
  930SOL    HW2 2610   0.393   3.355   2.866
  931SOL     OW 2611   1.460   3.367   3.201
  931SOL    HW1 2612   1.484   3.461   3.227
  931SOL    HW2 2613   1.444   3.313   3.283
  932SOL     OW 2614   0.438   2.254   3.361
  932SOL    HW1 2615   0.520   2.198   3.370
  932SOL    HW2 2616   0.357   2.196   3.365
  933SOL     OW 2617   0.231   3.575   2.345
  933SOL    HW1 2618   0.265   3.652   2.399
  933SOL    HW2 2619   0.275   3.575   2.255
  934SOL     OW 2620   1.127   3.203   3.552
  934SOL    HW1 2621   1.174   3.203   3.640
  934SOL    HW2 2622   1.079   3.116   3.541
  935SOL     OW 2623   0.230   3.296   2.400
  935SOL    HW1 2624   0.204   3.392   2.400
  935SOL    HW2 2625   0.159   3.242   2.445
  936SOL     OW 2626   0.240   2.953   2.748
  936SOL    HW1 2627   0.254   2.869   2.800
  936SOL    HW2 2628   0.185   3.017   2.803
  937SOL     OW 2629   0.620   3.648   3.301
  937SOL    HW1 2630   0.528   3.631   3.336
  937SOL    HW2 2631   0.648   3.740   3.327
  938SOL     OW 2632   0.606   2.826   1.985
  938SOL    HW1 2633   0.613   2.910   1.931
  938SOL    HW2 2634   0.652   2.839   2.073
  939SOL     OW 2635   1.594   1.976   3.342
  939SOL    HW1 2636   1.576   2.043   3.270
  939SOL    HW2 2637   1.591   2.022   3.431
  940SOL     OW 2638   0.122   2.505   2.425
  940SOL    HW1 2639   0.077   2.417   2.442
  940SOL    HW2 2640   0.121   2.559   2.509
  941SOL     OW 2641   1.842   3.629   2.221
  941SOL    HW1 2642   1.896   3.600   2.301
  941SOL    HW2 2643   1.872   3.719   2.192
  942SOL     OW 2644   0.027   3.458   1.979
  942SOL    HW1 2645   0.008   3.362   2.000
  942SOL    HW2 2646  -0.006   3.516   2.054
  943SOL     OW 2647   1.641   2.970   2.294
  943SOL    HW1 2648   1.727   2.972   2.242
  943SOL    HW2 2649   1.655   3.017   2.382
  944SOL     OW 2650   0.113   2.599   3.459
  944SOL    HW1 2651   0.201   2.586   3.504
  944SOL    HW2 2652   0.100   2.696   3.437
  945SOL     OW 2653   0.613   3.227   2.588
  945SOL    HW1 2654   0.564   3.140   2.597
  945SOL    HW2 2655   0.590   3.270   2.501
  946SOL     OW 2656   1.293   3.090   3.285
  946SOL    HW1 2657   1.330   3.017   3.227
  946SOL    HW2 2658   1.345   3.095   3.370
  947SOL     OW 2659   0.809   1.866   2.364
  947SOL    HW1 2660   0.849   1.957   2.355
  947SOL    HW2 2661   0.709   1.874   2.370
  948SOL     OW 2662   0.197   2.838   3.126
  948SOL    HW1 2663   0.286   2.793   3.112
  948SOL    HW2 2664   0.124   2.773   3.107
  949SOL     OW 2665   1.525   2.861   2.052
  949SOL    HW1 2666   1.462   2.785   2.065
  949SOL    HW2 2667   1.573   2.879   2.138
  950SOL     OW 2668   1.187   3.654   3.478
  950SOL    HW1 2669   1.211   3.714   3.402
  950SOL    HW2 2670   1.194   3.559   3.448
  951SOL     OW 2671   0.317   2.113   3.663
  951SOL    HW1 2672   0.388   2.184   3.669
  951SOL    HW2 2673   0.229   2.152   3.691
  952SOL     OW 2674   1.466   3.279   2.815
  952SOL    HW1 2675   1.407   3.285   2.895
  952SOL    HW2 2676   1.451   3.191   2.769
  953SOL     OW 2677   1.667   3.576   2.434
  953SOL    HW1 2678   1.626   3.553   2.346
  953SOL    HW2 2679   1.649   3.502   2.499
  954SOL     OW 2680   0.598   2.591   2.132
  954SOL    HW1 2681   0.622   2.660   2.064
  954SOL    HW2 2682   0.520   2.624   2.186
  955SOL     OW 2683   1.281   2.207   2.806
  955SOL    HW1 2684   1.195   2.157   2.793
  955SOL    HW2 2685   1.343   2.153   2.862
  956SOL     OW 2686   1.576   3.524   2.169
  956SOL    HW1 2687   1.665   3.570   2.172
  956SOL    HW2 2688   1.555   3.500   2.074
  957SOL     OW 2689   0.807   2.467   3.327
  957SOL    HW1 2690   0.760   2.464   3.416
  957SOL    HW2 2691   0.756   2.412   3.261
  958SOL     OW 2692   1.394   2.331   3.536
  958SOL    HW1 2693   1.374   2.374   3.624
  958SOL    HW2 2694   1.472   2.269   3.545
  959SOL     OW 2695   0.973   2.752   3.434
  959SOL    HW1 2696   1.019   2.668   3.405
  959SOL    HW2 2697   0.917   2.786   3.359
  960SOL     OW 2698   0.991   2.272   3.104
  960SOL    HW1 2699   0.914   2.306   3.158
  960SOL    HW2 2700   0.957   2.221   3.025
  961SOL     OW 2701   1.041   2.563   2.291
  961SOL    HW1 2702   1.067   2.559   2.387
  961SOL    HW2 2703   0.956   2.512   2.277
  962SOL     OW 2704   0.076   2.673   2.651
  962SOL    HW1 2705   0.175   2.661   2.660
  962SOL    HW2 2706   0.052   2.768   2.672
  963SOL     OW 2707   0.130   3.683   3.433
  963SOL    HW1 2708   0.120   3.668   3.532
  963SOL    HW2 2709   0.044   3.719   3.397
  964SOL     OW 2710   0.865   2.210   2.057
  964SOL    HW1 2711   0.924   2.273   2.008
  964SOL    HW2 2712   0.884   2.116   2.028
  965SOL     OW 2713   1.719   2.447   3.693
  965SOL    HW1 2714   1.693   2.536   3.657
  965SOL    HW2 2715   1.717   2.379   3.620
  966SOL     OW 2716   1.362   3.006   2.407
  966SOL    HW1 2717   1.445   2.977   2.359
  966SOL    HW2 2718   1.313   3.073   2.351
  967SOL     OW 2719   0.550   2.058   2.747
  967SOL    HW1 2720   0.545   2.053   2.847
  967SOL    HW2 2721   0.552   2.154   2.718
  968SOL     OW 2722   1.008   3.318   2.339
  968SOL    HW1 2723   0.962   3.390   2.287
  968SOL    HW2 2724   1.004   3.338   2.437
  969SOL     OW 2725   0.351   3.663   2.715
  969SOL    HW1 2726   0.401   3.577   2.721
  969SOL    HW2 2727   0.416   3.740   2.712
  970SOL     OW 2728   1.227   3.412   3.368
  970SOL    HW1 2729   1.233   3.335   3.432
  970SOL    HW2 2730   1.175   3.386   3.288
  971SOL     OW 2731   0.321   2.805   2.104
  971SOL    HW1 2732   0.403   2.844   2.062
  971SOL    HW2 2733   0.294   2.723   2.055
  972SOL     OW 2734   0.461   3.128   3.589
  972SOL    HW1 2735   0.411   3.129   3.503
  972SOL    HW2 2736   0.398   3.110   3.665
  973SOL     OW 2737   1.111   3.638   2.099
  973SOL    HW1 2738   1.051   3.576   2.149
  973SOL    HW2 2739   1.142   3.594   2.014
  974SOL     OW 2740   0.202   2.147   3.360
  974SOL    HW1 2741   0.122   2.207   3.347
  974SOL    HW2 2742   0.192   2.098   3.446
  975SOL     OW 2743   1.632   3.239   1.943
  975SOL    HW1 2744   1.600   3.333   1.933
  975SOL    HW2 2745   1.556   3.176   1.931
  976SOL     OW 2746   0.464   3.605   2.185
  976SOL    HW1 2747   0.497   3.644   2.271
  976SOL    HW2 2748   0.540   3.598   2.120
  977SOL     OW 2749   1.400   1.969   2.288
  977SOL    HW1 2750   1.376   1.932   2.198
  977SOL    HW2 2751   1.499   1.985   2.292
  978SOL     OW 2752   0.249   3.647   3.103
  978SOL    HW1 2753   0.306   3.582   3.153
  978SOL    HW2 2754   0.233   3.614   3.010
  979SOL     OW 2755   0.940   3.560   2.766
  979SOL    HW1 2756   1.020   3.503   2.787
  979SOL    HW2 2757   0.891   3.520   2.689
  980SOL     OW 2758   0.382   2.562   2.342
  980SOL    HW1 2759   0.427   2.472   2.339
  980SOL    HW2 2760   0.288   2.551   2.375
  981SOL     OW 2761   1.547   2.084   3.591
  981SOL    HW1 2762   1.542   2.121   3.683
  981SOL    HW2 2763   1.475   2.015   3.579
  982SOL     OW 2764   0.614   1.984   1.979
  982SOL    HW1 2765   0.712   1.962   1.986
  982SOL    HW2 2766   0.583   1.967   1.886
  983SOL     OW 2767   0.781   2.126   3.611
  983SOL    HW1 2768   0.848   2.065   3.654
  983SOL    HW2 2769   0.708   2.145   3.676
  984SOL     OW 2770   0.888   3.376   3.057
  984SOL    HW1 2771   0.865   3.351   2.963
  984SOL    HW2 2772   0.949   3.307   3.096
  985SOL     OW 2773   1.351   2.452   3.295
  985SOL    HW1 2774   1.379   2.409   3.380
  985SOL    HW2 2775   1.376   2.548   3.296
  986SOL     OW 2776   0.803   3.264   2.786
  986SOL    HW1 2777   0.893   3.278   2.744
  986SOL    HW2 2778   0.732   3.266   2.715
  987SOL     OW 2779   0.922   2.365   2.761
  987SOL    HW1 2780   0.897   2.356   2.665
  987SOL    HW2 2781   0.970   2.283   2.792
  988SOL     OW 2782   0.539   1.926   2.374
  988SOL    HW1 2783   0.458   1.927   2.432
  988SOL    HW2 2784   0.542   2.009   2.319
  989SOL     OW 2785   1.434   3.050   1.903
  989SOL    HW1 2786   1.466   2.974   1.960
  989SOL    HW2 2787   1.342   3.077   1.933
  990SOL     OW 2788   0.297   1.897   2.033
  990SOL    HW1 2789   0.346   1.981   2.012
  990SOL    HW2 2790   0.359   1.832   2.078
  991SOL     OW 2791   0.935   2.098   2.342
  991SOL    HW1 2792   0.887   2.139   2.264
  991SOL    HW2 2793   1.034   2.096   2.323
  992SOL     OW 2794   1.076   2.545   3.326
  992SOL    HW1 2795   0.996   2.484   3.329
  992SOL    HW2 2796   1.157   2.492   3.302
  993SOL     OW 2797   1.227   3.432   2.655
  993SOL    HW1 2798   1.248   3.506   2.590
  993SOL    HW2 2799   1.295   3.432   2.728
  994SOL     OW 2800   0.459   3.014   2.603
  994SOL    HW1 2801   0.388   2.987   2.668
  994SOL    HW2 2802   0.433   2.986   2.510
  995SOL     OW 2803   1.271   3.659   2.453
  995SOL    HW1 2804   1.315   3.723   2.389
  995SOL    HW2 2805   1.221   3.711   2.523
  996SOL     OW 2806   1.032   2.411   1.878
  996SOL    HW1 2807   0.991   2.493   1.839
  996SOL    HW2 2808   1.096   2.437   1.951
  997SOL     OW 2809   0.078   2.418   3.248
  997SOL    HW1 2810   0.170   2.417   3.207
  997SOL    HW2 2811   0.072   2.492   3.315
  998SOL     OW 2812   0.561   2.084   3.009
  998SOL    HW1 2813   0.599   2.000   3.046
  998SOL    HW2 2814   0.473   2.103   3.053
  999SOL     OW 2815   0.866   2.316   2.504
  999SOL    HW1 2816   0.834   2.388   2.442
  999SOL    HW2 2817   0.890   2.235   2.451
 1000SOL     OW 2818   1.017   1.901   2.615
 1000SOL    HW1 2819   0.945   1.906   2.546
 1000SOL    HW2 2820   0.993   1.832   2.684
 1001SOL     OW 2821   0.488   3.247   2.036
 1001SOL    HW1 2822   0.401   3.232   2.083
 1001SOL    HW2 2823   0.471   3.273   1.941
 1002SOL     OW 2824   1.664   3.142   2.519
 1002SOL    HW1 2825   1.763   3.150   2.533
 1002SOL    HW2 2826   1.619   3.226   2.550
 1003SOL     OW 2827   1.390   2.437   1.940
 1003SOL    HW1 2828   1.336   2.416   2.021
 1003SOL    HW2 2829   1.481   2.396   1.949
 1004SOL     OW 2830   0.527   2.118   2.190
 1004SOL    HW1 2831   0.554   2.059   2.115
 1004SOL    HW2 2832   0.527   2.213   2.159
 1005SOL     OW 2833   1.754   3.085   3.450
 1005SOL    HW1 2834   1.845   3.046   3.437
 1005SOL    HW2 2835   1.762   3.181   3.474
 1006SOL     OW 2836   1.064   3.209   3.202
 1006SOL    HW1 2837   0.984   3.186   3.257
 1006SOL    HW2 2838   1.147   3.183   3.251
 1007SOL     OW 2839   1.592   3.491   3.487
 1007SOL    HW1 2840   1.619   3.525   3.397
 1007SOL    HW2 2841   1.671   3.453   3.533
 1008SOL     OW 2842   1.111   3.057   2.962
 1008SOL    HW1 2843   1.071   3.101   3.043
 1008SOL    HW2 2844   1.070   3.094   2.879
 1009SOL     OW 2845   1.638   2.961   2.941
 1009SOL    HW1 2846   1.643   3.042   3.000
 1009SOL    HW2 2847   1.552   2.963   2.890
 1010SOL     OW 2848   0.915   1.951   3.264
 1010SOL    HW1 2849   0.940   1.931   3.169
 1010SOL    HW2 2850   0.987   2.007   3.306
 1011SOL     OW 2851   0.980   2.978   3.581
 1011SOL    HW1 2852   0.881   2.984   3.591
 1011SOL    HW2 2853   1.003   2.898   3.525
 1012SOL     OW 2854   0.705   2.912   2.230
 1012SOL    HW1 2855   0.691   2.919   2.329
 1012SOL    HW2 2856   0.789   2.861   2.212
 1013SOL     OW 2857   0.410   2.675   3.113
 1013SOL    HW1 2858   0.496   2.687   3.163
 1013SOL    HW2 2859   0.368   2.588   3.140
 1014SOL     OW 2860   1.274   2.248   3.124
 1014SOL    HW1 2861   1.295   2.322   3.188
 1014SOL    HW2 2862   1.185   2.265   3.081
 1015SOL     OW 2863   0.064   3.426   3.193
 1015SOL    HW1 2864   0.018   3.508   3.159
 1015SOL    HW2 2865   0.162   3.445   3.202
 1016SOL     OW 2866   0.367   2.962   2.363
 1016SOL    HW1 2867   0.360   3.045   2.307
 1016SOL    HW2 2868   0.371   2.882   2.303
 1017SOL     OW 2869   0.566   2.399   2.727
 1017SOL    HW1 2870   0.578   2.465   2.653
 1017SOL    HW2 2871   0.612   2.433   2.810
 1018SOL     OW 2872   1.252   3.210   2.250
 1018SOL    HW1 2873   1.302   3.287   2.290
 1018SOL    HW2 2874   1.157   3.212   2.282
 1019SOL     OW 2875   1.272   3.307   3.004
 1019SOL    HW1 2876   1.319   3.320   3.091
 1019SOL    HW2 2877   1.206   3.233   3.013
 1020SOL     OW 2878   1.582   2.501   2.334
 1020SOL    HW1 2879   1.551   2.562   2.407
 1020SOL    HW2 2880   1.632   2.553   2.265
 1021SOL     OW 2881   0.354   3.372   3.191
 1021SOL    HW1 2882   0.333   3.328   3.104
 1021SOL    HW2 2883   0.451   3.398   3.194
 1022SOL     OW 2884   0.402   2.613   3.460
 1022SOL    HW1 2885   0.470   2.668   3.413
 1022SOL    HW2 2886   0.442   2.525   3.487
 1023SOL     OW 2887   1.587   2.641   3.532
 1023SOL    HW1 2888   1.495   2.679   3.527
 1023SOL    HW2 2889   1.647   2.688   3.467
 1024SOL     OW 2890   1.013   1.967   3.632
 1024SOL    HW1 2891   1.019   2.052   3.580
 1024SOL    HW2 2892   1.045   1.891   3.575
 1025SOL     OW 2893   0.504   1.912   3.602
 1025SOL    HW1 2894   0.462   1.855   3.532
 1025SOL    HW2 2895   0.438   1.981   3.634
 1026SOL     OW 2896   0.573   2.732   2.891
 1026SOL    HW1 2897   0.617   2.821   2.882
 1026SOL    HW2 2898   0.510   2.732   2.968
 1027SOL     OW 2899   1.209   2.387   2.137
 1027SOL    HW1 2900   1.222   2.303   2.191
 1027SOL    HW2 2901   1.180   2.461   2.197
 1028SOL     OW 2902   0.307   2.075   3.093
 1028SOL    HW1 2903   0.284   2.112   3.183
 1028SOL    HW2 2904   0.277   1.980   3.087
 1029SOL     OW 2905   0.037   3.172   3.144
 1029SOL    HW1 2906   0.090   3.123   3.212
 1029SOL    HW2 2907   0.059   3.270   3.149
 1030SOL     OW 2908   0.732   2.496   2.926
 1030SOL    HW1 2909   0.791   2.470   2.850
 1030SOL    HW2 2910   0.704   2.592   2.915
 1031SOL     OW 2911   1.728   2.797   3.716
 1031SOL    HW1 2912   1.682   2.790   3.627
 1031SOL    HW2 2913   1.666   2.841   3.782
 1032SOL     OW 2914   0.307   1.925   2.480
 1032SOL    HW1 2915   0.296   2.019   2.513
 1032SOL    HW2 2916   0.302   1.862   2.557
 1033SOL     OW 2917   1.622   2.229   2.236
 1033SOL    HW1 2918   1.624   2.153   2.300
 1033SOL    HW2 2919   1.574   2.306   2.276
 1034SOL     OW 2920   1.023   2.628   2.828
 1034SOL    HW1 2921   1.038   2.649   2.924
 1034SOL    HW2 2922   0.993   2.533   2.819
 1035SOL     OW 2923   0.980   3.435   3.562
 1035SOL    HW1 2924   0.960   3.479   3.474
 1035SOL    HW2 2925   1.019   3.344   3.546
 1036SOL     OW 2926   1.859   3.380   3.467
 1036SOL    HW1 2927   1.873   3.407   3.372
 1036SOL    HW2 2928   1.942   3.402   3.520
 1037SOL     OW 2929   0.350   2.760   3.666
 1037SOL    HW1 2930   0.426   2.804   3.714
 1037SOL    HW2 2931   0.385   2.713   3.584
 1038SOL     OW 2932   1.540   2.136   1.987
 1038SOL    HW1 2933   1.479   2.061   2.010
 1038SOL    HW2 2934   1.562   2.188   2.070
 1039SOL     OW 2935   1.303   2.700   1.904
 1039SOL    HW1 2936   1.337   2.607   1.919
 1039SOL    HW2 2937   1.321   2.727   1.809
 1040SOL     OW 2938   1.068   3.195   2.711
 1040SOL    HW1 2939   1.075   3.111   2.656
 1040SOL    HW2 2940   1.130   3.264   2.675
 1041SOL     OW 2941   0.319   2.672   2.811
 1041SOL    HW1 2942   0.412   2.708   2.816
 1041SOL    HW2 2943   0.313   2.587   2.863
 1042SOL     OW 2944   0.339   2.371   2.868
 1042SOL    HW1 2945   0.287   2.288   2.851
 1042SOL    HW2 2946   0.416   2.376   2.804
 1043SOL     OW 2947   1.138   2.242   3.540
 1043SOL    HW1 2948   1.093   2.305   3.604
 1043SOL    HW2 2949   1.231   2.273   3.523
 1044SOL     OW 2950   1.160   2.069   3.339
 1044SOL    HW1 2951   1.160   2.133   3.416
 1044SOL    HW2 2952   1.188   2.117   3.256
 1045SOL     OW 2953   0.008   3.188   2.062
 1045SOL    HW1 2954  -0.085   3.209   2.031
 1045SOL    HW2 2955   0.018   3.089   2.075
 1046SOL     OW 2956   0.088   3.663   2.789
 1046SOL    HW1 2957   0.046   3.577   2.762
 1046SOL    HW2 2958   0.182   3.666   2.755
 1047SOL     OW 2959   0.504   3.430   2.772
 1047SOL    HW1 2960   0.570   3.504   2.781
 1047SOL    HW2 2961   0.548   3.351   2.730
 1048SOL     OW 2962   1.002   2.658   3.100
 1048SOL    HW1 2963   1.043   2.626   3.186
 1048SOL    HW2 2964   0.906   2.631   3.097
 1049SOL     OW 2965   0.040   2.406   2.976
 1049SOL    HW1 2966   0.125   2.373   2.935
 1049SOL    HW2 2967   0.053   2.421   3.074
 1050SOL     OW 2968   0.189   2.382   3.584
 1050SOL    HW1 2969   0.248   2.342   3.514
 1050SOL    HW2 2970   0.131   2.453   3.543
 1051SOL     OW 2971   1.369   2.812   3.522
 1051SOL    HW1 2972   1.408   2.901   3.542
 1051SOL    HW2 2973   1.379   2.792   3.425
 1052SOL     OW 2974   0.815   2.434   2.187
 1052SOL    HW1 2975   0.822   2.345   2.141
 1052SOL    HW2 2976   0.721   2.468   2.179
 1053SOL     OW 2977   1.657   2.466   3.068
 1053SOL    HW1 2978   1.619   2.397   3.130
 1053SOL    HW2 2979   1.739   2.430   3.024
 1054SOL     OW 2980   0.252   3.426   3.606
 1054SOL    HW1 2981   0.222   3.483   3.682
 1054SOL    HW2 2982   0.245   3.329   3.632
 1055SOL     OW 2983   0.671   2.326   3.131
 1055SOL    HW1 2984   0.637   2.237   3.101
 1055SOL    HW2 2985   0.697   2.380   3.051
 1056SOL     OW 2986   0.930   3.540   3.327
 1056SOL    HW1 2987   0.906   3.522   3.232
 1056SOL    HW2 2988   0.960   3.634   3.337
 1057SOL     OW 2989   0.473   2.362   2.053
 1057SOL    HW1 2990   0.534   2.442   2.057
 1057SOL    HW2 2991   0.378   2.393   2.060
 1058SOL     OW 2992   0.159   2.999   3.328
 1058SOL    HW1 2993   0.181   2.938   3.404
 1058SOL    HW2 2994   0.169   2.950   3.242
 1059SOL     OW 2995   1.302   2.717   2.171
 1059SOL    HW1 2996   1.216   2.686   2.213
 1059SOL    HW2 2997   1.298   2.703   2.072
 1060SOL     OW 2998   1.759   3.609   3.016
 1060SOL    HW1 2999   1.820   3.639   2.943
 1060SOL    HW2 3000   1.721   3.520   2.994
 1061SOL     OW 3001   1.252   3.593   2.990
 1061SOL    HW1 3002   1.336   3.598   2.936
 1061SOL    HW2 3003   1.229   3.497   3.008
 1062SOL     OW 3004   0.083   3.120   2.884
 1062SOL    HW1 3005   0.078   3.119   2.984
 1062SOL    HW2 3006   0.000   3.079   2.846
 1063SOL     OW 3007   0.688   3.524   3.578
 1063SOL    HW1 3008   0.632   3.605   3.587
 1063SOL    HW2 3009   0.740   3.528   3.492
 1064SOL     OW 3010   1.726   1.997   2.385
 1064SOL    HW1 3011   1.799   1.980   2.318
 1064SOL    HW2 3012   1.695   1.910   2.423
 1065SOL     OW 3013   1.388   3.435   2.339
 1065SOL    HW1 3014   1.455   3.447   2.265
 1065SOL    HW2 3015   1.348   3.524   2.362
 1066SOL     OW 3016   0.130   3.656   3.713
 1066SOL    HW1 3017   0.089   3.582   3.766
 1066SOL    HW2 3018   0.194   3.707   3.771
 1067SOL     OW 3019   0.830   3.135   3.284
 1067SOL    HW1 3020   0.825   3.168   3.379
 1067SOL    HW2 3021   0.744   3.154   3.238
 1068SOL     OW 3022   0.672   3.478   2.016
 1068SOL    HW1 3023   0.681   3.488   1.917
 1068SOL    HW2 3024   0.632   3.389   2.037
 1069SOL     OW 3025   1.650   3.582   3.256
 1069SOL    HW1 3026   1.703   3.592   3.172
 1069SOL    HW2 3027   1.623   3.672   3.290
 1070SOL     OW 3028   1.841   2.037   2.825
 1070SOL    HW1 3029   1.880   1.952   2.789
 1070SOL    HW2 3030   1.743   2.039   2.806
 1071SOL     OW 3031   0.263   2.188   2.582
 1071SOL    HW1 3032   0.184   2.239   2.548
 1071SOL    HW2 3033   0.254   2.173   2.680
 1072SOL     OW 3034   1.194   3.474   1.893
 1072SOL    HW1 3035   1.200   3.381   1.930
 1072SOL    HW2 3036   1.135   3.474   1.813
 1073SOL     OW 3037   0.822   2.864   3.234
 1073SOL    HW1 3038   0.862   2.863   3.142
 1073SOL    HW2 3039   0.832   2.956   3.274
 1074SOL     OW 3040   0.916   2.772   2.153
 1074SOL    HW1 3041   0.979   2.810   2.085
 1074SOL    HW2 3042   0.956   2.689   2.192
 1075SOL     OW 3043   1.504   3.469   1.906
 1075SOL    HW1 3044   1.412   3.506   1.913
 1075SOL    HW2 3045   1.542   3.489   1.816
 1076SOL     OW 3046   0.372   3.150   3.352
 1076SOL    HW1 3047   0.359   3.243   3.318
 1076SOL    HW2 3048   0.288   3.098   3.339
 1077SOL     OW 3049   1.614   3.154   3.151
 1077SOL    HW1 3050   1.674   3.157   3.231
 1077SOL    HW2 3051   1.539   3.218   3.164
 1078SOL     OW 3052   1.039   2.960   2.558
 1078SOL    HW1 3053   0.969   2.913   2.612
 1078SOL    HW2 3054   1.098   2.892   2.515
 1079SOL     OW 3055   1.014   2.098   2.833
 1079SOL    HW1 3056   1.006   2.062   2.740
 1079SOL    HW2 3057   1.012   2.022   2.898
 1080SOL     OW 3058   0.590   3.349   2.353
 1080SOL    HW1 3059   0.632   3.291   2.283
 1080SOL    HW2 3060   0.546   3.428   2.309
 1081SOL     OW 3061   1.709   2.247   3.243
 1081SOL    HW1 3062   1.782   2.316   3.247
 1081SOL    HW2 3063   1.737   2.172   3.184
 1082SOL     OW 3064   0.255   3.210   2.152
 1082SOL    HW1 3065   0.159   3.211   2.125
 1082SOL    HW2 3066   0.267   3.263   2.236
 1083SOL     OW 3067   0.105   2.875   3.588
 1083SOL    HW1 3068   0.028   2.842   3.642
 1083SOL    HW2 3069   0.190   2.845   3.630
 1084SOL     OW 3070   0.672   2.065   3.351
 1084SOL    HW1 3071   0.762   2.049   3.311
 1084SOL    HW2 3072   0.680   2.070   3.450
 1085SOL     OW 3073   0.075   2.207   1.895
 1085SOL    HW1 3074  -0.017   2.179   1.866
 1085SOL    HW2 3075   0.106   2.284   1.839
 1086SOL     OW 3076   1.440   2.718   3.260
 1086SOL    HW1 3077   1.383   2.770   3.197
 1086SOL    HW2 3078   1.536   2.730   3.236
 1087SOL     OW 3079   0.072   2.028   2.180
 1087SOL    HW1 3080   0.055   2.111   2.126
 1087SOL    HW2 3081   0.162   1.991   2.158
 1088SOL     OW 3082   1.183   3.197   1.981
 1088SOL    HW1 3083   1.084   3.186   1.983
 1088SOL    HW2 3084   1.217   3.212   2.074
 1089SOL     OW 3085   0.613   2.704   3.293
 1089SOL    HW1 3086   0.669   2.785   3.276
 1089SOL    HW2 3087   0.672   2.624   3.296
 1090SOL     OW 3088   1.493   3.629   2.821
 1090SOL    HW1 3089   1.526   3.693   2.752
 1090SOL    HW2 3090   1.559   3.623   2.896
 1091SOL     OW 3091   0.716   2.427   3.570
 1091SOL    HW1 3092   0.735   2.492   3.644
 1091SOL    HW2 3093   0.776   2.347   3.579
 1092SOL     OW 3094   1.450   3.082   3.495
 1092SOL    HW1 3095   1.441   3.072   3.594
 1092SOL    HW2 3096   1.546   3.075   3.469
 1093SOL     OW 3097   0.390   3.603   3.422
 1093SOL    HW1 3098   0.299   3.644   3.420
 1093SOL    HW2 3099   0.383   3.509   3.454
 1094SOL     OW 3100   1.674   2.745   3.116
 1094SOL    HW1 3101   1.647   2.656   3.079
 1094SOL    HW2 3102   1.675   2.813   3.043
 1095SOL     OW 3103   1.225   2.187   2.311
 1095SOL    HW1 3104   1.290   2.113   2.300
 1095SOL    HW2 3105   1.245   2.237   2.395
 1096SOL     OW 3106   0.594   2.607   2.514
 1096SOL    HW1 3107   0.644   2.692   2.495
 1096SOL    HW2 3108   0.506   2.609   2.466
 1097SOL     OW 3109   1.777   2.204   3.504
 1097SOL    HW1 3110   1.760   2.235   3.410
 1097SOL    HW2 3111   1.693   2.167   3.542
 1098SOL     OW 3112   1.730   2.796   3.379
 1098SOL    HW1 3113   1.768   2.887   3.394
 1098SOL    HW2 3114   1.722   2.779   3.280
 1099SOL     OW 3115   0.859   3.236   1.878
 1099SOL    HW1 3116   0.813   3.251   1.966
 1099SOL    HW2 3117   0.903   3.321   1.848
 1100SOL     OW 3118   0.661   3.652   2.815
 1100SOL    HW1 3119   0.615   3.740   2.802
 1100SOL    HW2 3120   0.760   3.664   2.808
 1101SOL     OW 3121   0.859   2.818   2.723
 1101SOL    HW1 3122   0.913   2.749   2.771
 1101SOL    HW2 3123   0.827   2.887   2.789
 1102SOL     OW 3124   1.083   2.846   1.949
 1102SOL    HW1 3125   1.060   2.899   1.867
 1102SOL    HW2 3126   1.164   2.790   1.930
 1103SOL     OW 3127   1.861   3.431   2.713
 1103SOL    HW1 3128   1.790   3.419   2.643
 1103SOL    HW2 3129   1.862   3.352   2.773
 1104SOL     OW 3130   0.221   3.176   3.706
 1104SOL    HW1 3131   0.156   3.103   3.685
 1104SOL    HW2 3132   0.225   3.190   3.804
 1105SOL     OW 3133   0.079   3.102   2.515
 1105SOL    HW1 3134   0.078   3.055   2.603
 1105SOL    HW2 3135   0.161   3.074   2.464
 1106SOL     OW 3136   0.672   3.253   3.486
 1106SOL    HW1 3137   0.594   3.203   3.524
 1106SOL    HW2 3138   0.669   3.348   3.517
 1107SOL     OW 3139   1.824   2.054   3.089
 1107SOL    HW1 3140   1.820   1.964   3.133
 1107SOL    HW2 3141   1.827   2.043   2.990
 1108SOL     OW 3142   0.428   2.286   2.382
 1108SOL    HW1 3143   0.458   2.214   2.320
 1108SOL    HW2 3144   0.389   2.246   2.465
 1109SOL     OW 3145   1.705   3.349   2.966
 1109SOL    HW1 3146   1.612   3.324   2.939
 1109SOL    HW2 3147   1.731   3.299   3.048
 1110SOL     OW 3148   0.317   2.409   3.142
 1110SOL    HW1 3149   0.355   2.350   3.214
 1110SOL    HW2 3150   0.357   2.383   3.054
 1111SOL     OW 3151   0.812   3.448   2.549
 1111SOL    HW1 3152   0.844   3.458   2.455
 1111SOL    HW2 3153   0.733   3.386   2.551
 1112SOL     OW 3154   1.424   2.076   2.974
 1112SOL    HW1 3155   1.476   2.011   3.029
 1112SOL    HW2 3156   1.375   2.139   3.035
 1113SOL     OW 3157   1.001   1.896   3.016
 1113SOL    HW1 3158   0.938   1.824   2.985
 1113SOL    HW2 3159   1.094   1.860   3.016
 1114SOL     OW 3160   0.770   3.192   2.163
 1114SOL    HW1 3161   0.724   3.105   2.180
 1114SOL    HW2 3162   0.861   3.189   2.204
 1115SOL     OW 3163   0.618   3.429   3.146
 1115SOL    HW1 3164   0.613   3.511   3.203
 1115SOL    HW2 3165   0.707   3.426   3.101
 1116SOL     OW 3166   1.352   1.914   2.030
 1116SOL    HW1 3167   1.387   1.873   1.946
 1116SOL    HW2 3168   1.262   1.876   2.050
 1117SOL     OW 3169   1.300   2.315   2.553
 1117SOL    HW1 3170   1.241   2.395   2.557
 1117SOL    HW2 3171   1.315   2.280   2.646
 1118SOL     OW 3172   1.593   2.083   2.744
 1118SOL    HW1 3173   1.509   2.082   2.798
 1118SOL    HW2 3174   1.595   2.166   2.688
 1119SOL     OW 3175   0.039   2.939   2.162
 1119SOL    HW1 3176   0.138   2.928   2.153
 1119SOL    HW2 3177  -0.001   2.853   2.194
 1120SOL     OW 3178   0.875   3.508   2.199
 1120SOL    HW1 3179   0.798   3.473   2.145
 1120SOL    HW2 3180   0.843   3.579   2.261
 1121SOL     OW 3181   0.230   2.490   3.837
 1121SOL    HW1 3182   0.137   2.488   3.874
 1121SOL    HW2 3183   0.231   2.451   3.745
 1122SOL     OW 3184   0.225   2.137   4.720
 1122SOL    HW1 3185   0.260   2.120   4.812
 1122SOL    HW2 3186   0.137   2.092   4.708
 1123SOL     OW 3187   0.019   2.230   4.371
 1123SOL    HW1 3188  -0.063   2.273   4.410
 1123SOL    HW2 3189  -0.009   2.157   4.308
 1124SOL     OW 3190   0.569   3.137   4.889
 1124SOL    HW1 3191   0.476   3.130   4.852
 1124SOL    HW2 3192   0.580   3.226   4.933
 1125SOL     OW 3193   1.555   3.373   4.427
 1125SOL    HW1 3194   1.498   3.357   4.508
 1125SOL    HW2 3195   1.496   3.383   4.347
 1126SOL     OW 3196   1.135   2.565   4.441
 1126SOL    HW1 3197   1.192   2.643   4.416
 1126SOL    HW2 3198   1.075   2.591   4.517
 1127SOL     OW 3199   1.755   2.469   3.955
 1127SOL    HW1 3200   1.743   2.456   3.856
 1127SOL    HW2 3201   1.725   2.388   4.004
 1128SOL     OW 3202   0.768   3.006   4.747
 1128SOL    HW1 3203   0.690   3.023   4.807
 1128SOL    HW2 3204   0.802   3.093   4.711
 1129SOL     OW 3205   0.685   2.874   4.389
 1129SOL    HW1 3206   0.754   2.858   4.459
 1129SOL    HW2 3207   0.612   2.931   4.427
 1130SOL     OW 3208   0.335   3.297   4.785
 1130SOL    HW1 3209   0.257   3.266   4.732
 1130SOL    HW2 3210   0.393   3.355   4.728
 1131SOL     OW 3211   1.603   2.309   4.461
 1131SOL    HW1 3212   1.529   2.355   4.411
 1131SOL    HW2 3213   1.654   2.377   4.514
 1132SOL     OW 3214   0.231   3.575   4.207
 1132SOL    HW1 3215   0.265   3.652   4.261
 1132SOL    HW2 3216   0.275   3.575   4.117
 1133SOL     OW 3217   0.230   3.296   4.262
 1133SOL    HW1 3218   0.204   3.392   4.262
 1133SOL    HW2 3219   0.159   3.242   4.307
 1134SOL     OW 3220   0.240   2.953   4.610
 1134SOL    HW1 3221   0.254   2.869   4.662
 1134SOL    HW2 3222   0.185   3.017   4.665
 1135SOL     OW 3223   0.620   3.648   5.163
 1135SOL    HW1 3224   0.528   3.631   5.198
 1135SOL    HW2 3225   0.648   3.740   5.189
 1136SOL     OW 3226   0.606   2.826   3.847
 1136SOL    HW1 3227   0.613   2.910   3.793
 1136SOL    HW2 3228   0.652   2.839   3.935
 1137SOL     OW 3229   0.122   2.505   4.287
 1137SOL    HW1 3230   0.077   2.417   4.304
 1137SOL    HW2 3231   0.121   2.559   4.371
 1138SOL     OW 3232   1.842   3.629   4.083
 1138SOL    HW1 3233   1.896   3.600   4.163
 1138SOL    HW2 3234   1.872   3.719   4.054
 1139SOL     OW 3235   0.027   3.458   3.841
 1139SOL    HW1 3236   0.008   3.362   3.862
 1139SOL    HW2 3237  -0.006   3.516   3.916
 1140SOL     OW 3238   1.689   2.784   4.336
 1140SOL    HW1 3239   1.784   2.755   4.344
 1140SOL    HW2 3240   1.681   2.849   4.261
 1141SOL     OW 3241   1.641   2.970   4.156
 1141SOL    HW1 3242   1.727   2.972   4.104
 1141SOL    HW2 3243   1.655   3.017   4.244
 1142SOL     OW 3244   0.613   3.227   4.450
 1142SOL    HW1 3245   0.564   3.140   4.459
 1142SOL    HW2 3246   0.590   3.270   4.363
 1143SOL     OW 3247   0.809   1.866   4.226
 1143SOL    HW1 3248   0.849   1.957   4.217
 1143SOL    HW2 3249   0.709   1.874   4.232
 1144SOL     OW 3250   0.197   2.838   4.988
 1144SOL    HW1 3251   0.286   2.793   4.974
 1144SOL    HW2 3252   0.124   2.773   4.969
 1145SOL     OW 3253   1.525   2.861   3.914
 1145SOL    HW1 3254   1.462   2.785   3.927
 1145SOL    HW2 3255   1.573   2.879   4.000
 1146SOL     OW 3256   1.466   3.279   4.677
 1146SOL    HW1 3257   1.407   3.285   4.757
 1146SOL    HW2 3258   1.451   3.191   4.631
 1147SOL     OW 3259   1.667   3.576   4.296
 1147SOL    HW1 3260   1.626   3.553   4.208
 1147SOL    HW2 3261   1.649   3.502   4.361
 1148SOL     OW 3262   0.598   2.591   3.994
 1148SOL    HW1 3263   0.622   2.660   3.926
 1148SOL    HW2 3264   0.520   2.624   4.048
 1149SOL     OW 3265   1.281   2.207   4.668
 1149SOL    HW1 3266   1.195   2.157   4.655
 1149SOL    HW2 3267   1.343   2.153   4.724
 1150SOL     OW 3268   1.576   3.524   4.031
 1150SOL    HW1 3269   1.665   3.570   4.034
 1150SOL    HW2 3270   1.555   3.500   3.936
 1151SOL     OW 3271   0.991   2.272   4.966
 1151SOL    HW1 3272   0.914   2.306   5.020
 1151SOL    HW2 3273   0.957   2.221   4.887
 1152SOL     OW 3274   1.041   2.563   4.153
 1152SOL    HW1 3275   1.067   2.559   4.249
 1152SOL    HW2 3276   0.956   2.512   4.139
 1153SOL     OW 3277   0.076   2.673   4.513
 1153SOL    HW1 3278   0.175   2.661   4.522
 1153SOL    HW2 3279   0.052   2.768   4.534
 1154SOL     OW 3280   0.130   3.683   5.295
 1154SOL    HW1 3281   0.120   3.668   5.394
 1154SOL    HW2 3282   0.044   3.719   5.259
 1155SOL     OW 3283   0.865   2.210   3.919
 1155SOL    HW1 3284   0.924   2.273   3.870
 1155SOL    HW2 3285   0.884   2.116   3.890
 1156SOL     OW 3286   1.362   3.006   4.269
 1156SOL    HW1 3287   1.445   2.977   4.221
 1156SOL    HW2 3288   1.313   3.073   4.213
 1157SOL     OW 3289   0.550   2.058   4.609
 1157SOL    HW1 3290   0.545   2.053   4.709
 1157SOL    HW2 3291   0.552   2.154   4.580
 1158SOL     OW 3292   1.008   3.318   4.201
 1158SOL    HW1 3293   0.962   3.390   4.149
 1158SOL    HW2 3294   1.004   3.338   4.299
 1159SOL     OW 3295   0.351   3.663   4.577
 1159SOL    HW1 3296   0.401   3.577   4.583
 1159SOL    HW2 3297   0.416   3.740   4.574
 1160SOL     OW 3298   1.795   2.928   4.597
 1160SOL    HW1 3299   1.733   2.913   4.521
 1160SOL    HW2 3300   1.743   2.939   4.682
 1161SOL     OW 3301   0.321   2.805   3.966
 1161SOL    HW1 3302   0.403   2.844   3.924
 1161SOL    HW2 3303   0.294   2.723   3.917
 1162SOL     OW 3304   1.458   2.597   4.452
 1162SOL    HW1 3305   1.453   2.532   4.527
 1162SOL    HW2 3306   1.538   2.656   4.465
 1163SOL     OW 3307   1.111   3.638   3.961
 1163SOL    HW1 3308   1.051   3.576   4.011
 1163SOL    HW2 3309   1.142   3.594   3.876
 1164SOL     OW 3310   1.632   3.239   3.805
 1164SOL    HW1 3311   1.600   3.333   3.795
 1164SOL    HW2 3312   1.556   3.176   3.793
 1165SOL     OW 3313   0.464   3.605   4.047
 1165SOL    HW1 3314   0.497   3.644   4.133
 1165SOL    HW2 3315   0.540   3.598   3.982
 1166SOL     OW 3316   1.400   1.969   4.150
 1166SOL    HW1 3317   1.376   1.932   4.060
 1166SOL    HW2 3318   1.499   1.985   4.154
 1167SOL     OW 3319   0.249   3.647   4.965
 1167SOL    HW1 3320   0.306   3.582   5.015
 1167SOL    HW2 3321   0.233   3.614   4.872
 1168SOL     OW 3322   0.940   3.560   4.628
 1168SOL    HW1 3323   1.020   3.503   4.649
 1168SOL    HW2 3324   0.891   3.520   4.551
 1169SOL     OW 3325   0.382   2.562   4.204
 1169SOL    HW1 3326   0.427   2.472   4.201
 1169SOL    HW2 3327   0.288   2.551   4.237
 1170SOL     OW 3328   0.614   1.984   3.841
 1170SOL    HW1 3329   0.712   1.962   3.848
 1170SOL    HW2 3330   0.583   1.967   3.748
 1171SOL     OW 3331   0.803   3.264   4.648
 1171SOL    HW1 3332   0.893   3.278   4.606
 1171SOL    HW2 3333   0.732   3.266   4.577
 1172SOL     OW 3334   0.922   2.365   4.623
 1172SOL    HW1 3335   0.897   2.356   4.527
 1172SOL    HW2 3336   0.970   2.283   4.654
 1173SOL     OW 3337   0.539   1.926   4.236
 1173SOL    HW1 3338   0.458   1.927   4.294
 1173SOL    HW2 3339   0.542   2.009   4.181
 1174SOL     OW 3340   1.434   3.050   3.765
 1174SOL    HW1 3341   1.466   2.974   3.822
 1174SOL    HW2 3342   1.342   3.077   3.795
 1175SOL     OW 3343   0.297   1.897   3.895
 1175SOL    HW1 3344   0.346   1.981   3.874
 1175SOL    HW2 3345   0.359   1.832   3.940
 1176SOL     OW 3346   0.935   2.098   4.204
 1176SOL    HW1 3347   0.887   2.139   4.126
 1176SOL    HW2 3348   1.034   2.096   4.185
 1177SOL     OW 3349   1.227   3.432   4.517
 1177SOL    HW1 3350   1.248   3.506   4.452
 1177SOL    HW2 3351   1.295   3.432   4.590
 1178SOL     OW 3352   0.459   3.014   4.465
 1178SOL    HW1 3353   0.388   2.987   4.530
 1178SOL    HW2 3354   0.433   2.986   4.372
 1179SOL     OW 3355   1.271   3.659   4.315
 1179SOL    HW1 3356   1.315   3.723   4.251
 1179SOL    HW2 3357   1.221   3.711   4.385
 1180SOL     OW 3358   1.032   2.411   3.740
 1180SOL    HW1 3359   0.991   2.493   3.701
 1180SOL    HW2 3360   1.096   2.437   3.813
 1181SOL     OW 3361   0.561   2.084   4.871
 1181SOL    HW1 3362   0.599   2.000   4.908
 1181SOL    HW2 3363   0.473   2.103   4.915
 1182SOL     OW 3364   0.866   2.316   4.366
 1182SOL    HW1 3365   0.834   2.388   4.304
 1182SOL    HW2 3366   0.890   2.235   4.313
 1183SOL     OW 3367   1.017   1.901   4.477
 1183SOL    HW1 3368   0.945   1.906   4.408
 1183SOL    HW2 3369   0.993   1.832   4.546
 1184SOL     OW 3370   1.429   3.035   4.591
 1184SOL    HW1 3371   1.374   2.951   4.584
 1184SOL    HW2 3372   1.455   3.064   4.499
 1185SOL     OW 3373   1.466   2.452   4.716
 1185SOL    HW1 3374   1.436   2.357   4.723
 1185SOL    HW2 3375   1.539   2.468   4.782
 1186SOL     OW 3376   1.857   2.695   4.101
 1186SOL    HW1 3377   1.899   2.631   4.165
 1186SOL    HW2 3378   1.819   2.644   4.023
 1187SOL     OW 3379   0.488   3.247   3.898
 1187SOL    HW1 3380   0.401   3.232   3.945
 1187SOL    HW2 3381   0.471   3.273   3.803
 1188SOL     OW 3382   1.664   3.142   4.381
 1188SOL    HW1 3383   1.763   3.150   4.395
 1188SOL    HW2 3384   1.619   3.226   4.412
 1189SOL     OW 3385   1.390   2.437   3.802
 1189SOL    HW1 3386   1.336   2.416   3.883
 1189SOL    HW2 3387   1.481   2.396   3.811
 1190SOL     OW 3388   0.527   2.118   4.052
 1190SOL    HW1 3389   0.554   2.059   3.977
 1190SOL    HW2 3390   0.527   2.213   4.021
 1191SOL     OW 3391   1.111   3.057   4.824
 1191SOL    HW1 3392   1.071   3.101   4.905
 1191SOL    HW2 3393   1.070   3.094   4.741
 1192SOL     OW 3394   1.638   2.961   4.803
 1192SOL    HW1 3395   1.643   3.042   4.862
 1192SOL    HW2 3396   1.552   2.963   4.752
 1193SOL     OW 3397   0.705   2.912   4.092
 1193SOL    HW1 3398   0.691   2.919   4.191
 1193SOL    HW2 3399   0.789   2.861   4.074
 1194SOL     OW 3400   0.410   2.675   4.975
 1194SOL    HW1 3401   0.496   2.687   5.025
 1194SOL    HW2 3402   0.368   2.588   5.002
 1195SOL     OW 3403   1.274   2.248   4.986
 1195SOL    HW1 3404   1.295   2.322   5.050
 1195SOL    HW2 3405   1.185   2.265   4.943
 1196SOL     OW 3406   0.367   2.962   4.225
 1196SOL    HW1 3407   0.360   3.045   4.169
 1196SOL    HW2 3408   0.371   2.882   4.165
 1197SOL     OW 3409   0.566   2.399   4.589
 1197SOL    HW1 3410   0.578   2.465   4.515
 1197SOL    HW2 3411   0.612   2.433   4.672
 1198SOL     OW 3412   1.252   3.210   4.112
 1198SOL    HW1 3413   1.302   3.287   4.152
 1198SOL    HW2 3414   1.157   3.212   4.144
 1199SOL     OW 3415   1.272   3.307   4.866
 1199SOL    HW1 3416   1.319   3.320   4.953
 1199SOL    HW2 3417   1.206   3.233   4.875
 1200SOL     OW 3418   1.582   2.501   4.196
 1200SOL    HW1 3419   1.551   2.562   4.269
 1200SOL    HW2 3420   1.632   2.553   4.127
 1201SOL     OW 3421   0.354   3.372   5.053
 1201SOL    HW1 3422   0.333   3.328   4.966
 1201SOL    HW2 3423   0.451   3.398   5.056
 1202SOL     OW 3424   0.573   2.732   4.753
 1202SOL    HW1 3425   0.617   2.821   4.744
 1202SOL    HW2 3426   0.510   2.732   4.830
 1203SOL     OW 3427   1.360   2.724   4.769
 1203SOL    HW1 3428   1.285   2.724   4.703
 1203SOL    HW2 3429   1.397   2.632   4.778
 1204SOL     OW 3430   1.209   2.387   3.999
 1204SOL    HW1 3431   1.222   2.303   4.053
 1204SOL    HW2 3432   1.180   2.461   4.059
 1205SOL     OW 3433   0.307   2.075   4.955
 1205SOL    HW1 3434   0.284   2.112   5.045
 1205SOL    HW2 3435   0.277   1.980   4.949
 1206SOL     OW 3436   0.037   3.172   5.006
 1206SOL    HW1 3437   0.090   3.123   5.074
 1206SOL    HW2 3438   0.059   3.270   5.011
 1207SOL     OW 3439   0.732   2.496   4.788
 1207SOL    HW1 3440   0.791   2.470   4.712
 1207SOL    HW2 3441   0.704   2.592   4.777
 1208SOL     OW 3442   0.307   1.925   4.342
 1208SOL    HW1 3443   0.296   2.019   4.375
 1208SOL    HW2 3444   0.302   1.862   4.419
 1209SOL     OW 3445   1.622   2.229   4.098
 1209SOL    HW1 3446   1.624   2.153   4.162
 1209SOL    HW2 3447   1.574   2.306   4.138
 1210SOL     OW 3448   1.023   2.628   4.690
 1210SOL    HW1 3449   1.038   2.649   4.786
 1210SOL    HW2 3450   0.993   2.533   4.681
 1211SOL     OW 3451   1.540   2.136   3.849
 1211SOL    HW1 3452   1.479   2.061   3.872
 1211SOL    HW2 3453   1.562   2.188   3.932
 1212SOL     OW 3454   1.303   2.700   3.766
 1212SOL    HW1 3455   1.337   2.607   3.781
 1212SOL    HW2 3456   1.321   2.727   3.671
 1213SOL     OW 3457   1.068   3.195   4.573
 1213SOL    HW1 3458   1.075   3.111   4.518
 1213SOL    HW2 3459   1.130   3.264   4.537
 1214SOL     OW 3460   0.319   2.672   4.673
 1214SOL    HW1 3461   0.412   2.708   4.678
 1214SOL    HW2 3462   0.313   2.587   4.725
 1215SOL     OW 3463   0.339   2.371   4.730
 1215SOL    HW1 3464   0.287   2.288   4.713
 1215SOL    HW2 3465   0.416   2.376   4.666
 1216SOL     OW 3466   1.160   2.069   5.201
 1216SOL    HW1 3467   1.160   2.133   5.278
 1216SOL    HW2 3468   1.188   2.117   5.118
 1217SOL     OW 3469   0.008   3.188   3.924
 1217SOL    HW1 3470  -0.085   3.209   3.893
 1217SOL    HW2 3471   0.018   3.089   3.937
 1218SOL     OW 3472   0.088   3.663   4.651
 1218SOL    HW1 3473   0.046   3.577   4.624
 1218SOL    HW2 3474   0.182   3.666   4.617
 1219SOL     OW 3475   0.504   3.430   4.634
 1219SOL    HW1 3476   0.570   3.504   4.643
 1219SOL    HW2 3477   0.548   3.351   4.592
 1220SOL     OW 3478   1.002   2.658   4.962
 1220SOL    HW1 3479   1.043   2.626   5.048
 1220SOL    HW2 3480   0.906   2.631   4.959
 1221SOL     OW 3481   0.040   2.406   4.838
 1221SOL    HW1 3482   0.125   2.373   4.797
 1221SOL    HW2 3483   0.053   2.421   4.936
 1222SOL     OW 3484   0.815   2.434   4.049
 1222SOL    HW1 3485   0.822   2.345   4.003
 1222SOL    HW2 3486   0.721   2.468   4.041
 1223SOL     OW 3487   1.657   2.466   4.930
 1223SOL    HW1 3488   1.619   2.397   4.992
 1223SOL    HW2 3489   1.739   2.430   4.886
 1224SOL     OW 3490   0.671   2.326   4.993
 1224SOL    HW1 3491   0.637   2.237   4.963
 1224SOL    HW2 3492   0.697   2.380   4.913
 1225SOL     OW 3493   0.930   3.540   5.189
 1225SOL    HW1 3494   0.906   3.522   5.094
 1225SOL    HW2 3495   0.960   3.634   5.199
 1226SOL     OW 3496   0.473   2.362   3.915
 1226SOL    HW1 3497   0.534   2.442   3.919
 1226SOL    HW2 3498   0.378   2.393   3.922
 1227SOL     OW 3499   1.347   2.921   4.958
 1227SOL    HW1 3500   1.371   2.858   4.884
 1227SOL    HW2 3501   1.257   2.961   4.940
 1228SOL     OW 3502   1.302   2.717   4.033
 1228SOL    HW1 3503   1.216   2.686   4.075
 1228SOL    HW2 3504   1.298   2.703   3.934
 1229SOL     OW 3505   1.759   3.609   4.878
 1229SOL    HW1 3506   1.820   3.639   4.805
 1229SOL    HW2 3507   1.721   3.520   4.856
 1230SOL     OW 3508   1.252   3.593   4.852
 1230SOL    HW1 3509   1.336   3.598   4.798
 1230SOL    HW2 3510   1.229   3.497   4.870
 1231SOL     OW 3511   0.083   3.120   4.746
 1231SOL    HW1 3512   0.078   3.119   4.846
 1231SOL    HW2 3513   0.000   3.079   4.708
 1232SOL     OW 3514   1.726   1.997   4.247
 1232SOL    HW1 3515   1.799   1.980   4.180
 1232SOL    HW2 3516   1.695   1.910   4.285
 1233SOL     OW 3517   1.388   3.435   4.201
 1233SOL    HW1 3518   1.455   3.447   4.127
 1233SOL    HW2 3519   1.348   3.524   4.224
 1234SOL     OW 3520   1.280   2.789   4.396
 1234SOL    HW1 3521   1.340   2.708   4.398
 1234SOL    HW2 3522   1.320   2.858   4.336
 1235SOL     OW 3523   0.672   3.478   3.878
 1235SOL    HW1 3524   0.681   3.488   3.779
 1235SOL    HW2 3525   0.632   3.389   3.899
 1236SOL     OW 3526   1.650   3.582   5.118
 1236SOL    HW1 3527   1.703   3.592   5.034
 1236SOL    HW2 3528   1.623   3.672   5.152
 1237SOL     OW 3529   1.841   2.037   4.687
 1237SOL    HW1 3530   1.880   1.952   4.651
 1237SOL    HW2 3531   1.743   2.039   4.668
 1238SOL     OW 3532   0.263   2.188   4.444
 1238SOL    HW1 3533   0.184   2.239   4.410
 1238SOL    HW2 3534   0.254   2.173   4.542
 1239SOL     OW 3535   1.194   3.474   3.755
 1239SOL    HW1 3536   1.200   3.381   3.792
 1239SOL    HW2 3537   1.135   3.474   3.675
 1240SOL     OW 3538   0.822   2.864   5.096
 1240SOL    HW1 3539   0.862   2.863   5.004
 1240SOL    HW2 3540   0.832   2.956   5.136
 1241SOL     OW 3541   0.916   2.772   4.015
 1241SOL    HW1 3542   0.979   2.810   3.947
 1241SOL    HW2 3543   0.956   2.689   4.054
 1242SOL     OW 3544   1.504   3.469   3.768
 1242SOL    HW1 3545   1.412   3.506   3.775
 1242SOL    HW2 3546   1.542   3.489   3.678
 1243SOL     OW 3547   1.039   2.960   4.420
 1243SOL    HW1 3548   0.969   2.913   4.474
 1243SOL    HW2 3549   1.098   2.892   4.377
 1244SOL     OW 3550   1.014   2.098   4.695
 1244SOL    HW1 3551   1.006   2.062   4.602
 1244SOL    HW2 3552   1.012   2.022   4.760
 1245SOL     OW 3553   0.590   3.349   4.215
 1245SOL    HW1 3554   0.632   3.291   4.145
 1245SOL    HW2 3555   0.546   3.428   4.171
 1246SOL     OW 3556   1.709   2.247   5.105
 1246SOL    HW1 3557   1.782   2.316   5.109
 1246SOL    HW2 3558   1.737   2.172   5.046
 1247SOL     OW 3559   0.255   3.210   4.014
 1247SOL    HW1 3560   0.159   3.211   3.987
 1247SOL    HW2 3561   0.267   3.263   4.098
 1248SOL     OW 3562   0.075   2.207   3.757
 1248SOL    HW1 3563  -0.017   2.179   3.728
 1248SOL    HW2 3564   0.106   2.284   3.701
 1249SOL     OW 3565   0.072   2.028   4.042
 1249SOL    HW1 3566   0.055   2.111   3.988
 1249SOL    HW2 3567   0.162   1.991   4.020
 1250SOL     OW 3568   1.183   3.197   3.843
 1250SOL    HW1 3569   1.084   3.186   3.845
 1250SOL    HW2 3570   1.217   3.212   3.936
 1251SOL     OW 3571   1.493   3.629   4.683
 1251SOL    HW1 3572   1.526   3.693   4.614
 1251SOL    HW2 3573   1.559   3.623   4.758
 1252SOL     OW 3574   1.450   3.082   5.357
 1252SOL    HW1 3575   1.441   3.072   5.456
 1252SOL    HW2 3576   1.546   3.075   5.331
 1253SOL     OW 3577   1.674   2.745   4.978
 1253SOL    HW1 3578   1.647   2.656   4.941
 1253SOL    HW2 3579   1.675   2.813   4.905
 1254SOL     OW 3580   1.225   2.187   4.173
 1254SOL    HW1 3581   1.290   2.113   4.162
 1254SOL    HW2 3582   1.245   2.237   4.257
 1255SOL     OW 3583   0.594   2.607   4.376
 1255SOL    HW1 3584   0.644   2.692   4.357
 1255SOL    HW2 3585   0.506   2.609   4.328
 1256SOL     OW 3586   1.730   2.796   5.241
 1256SOL    HW1 3587   1.768   2.887   5.256
 1256SOL    HW2 3588   1.722   2.779   5.142
 1257SOL     OW 3589   0.859   3.236   3.740
 1257SOL    HW1 3590   0.813   3.251   3.828
 1257SOL    HW2 3591   0.903   3.321   3.710
 1258SOL     OW 3592   0.661   3.652   4.677
 1258SOL    HW1 3593   0.615   3.740   4.664
 1258SOL    HW2 3594   0.760   3.664   4.670
 1259SOL     OW 3595   0.859   2.818   4.585
 1259SOL    HW1 3596   0.913   2.749   4.633
 1259SOL    HW2 3597   0.827   2.887   4.651
 1260SOL     OW 3598   1.083   2.846   3.811
 1260SOL    HW1 3599   1.060   2.899   3.729
 1260SOL    HW2 3600   1.164   2.790   3.792
 1261SOL     OW 3601   1.861   3.431   4.575
 1261SOL    HW1 3602   1.790   3.419   4.505
 1261SOL    HW2 3603   1.862   3.352   4.635
 1262SOL     OW 3604   0.079   3.102   4.377
 1262SOL    HW1 3605   0.078   3.055   4.465
 1262SOL    HW2 3606   0.161   3.074   4.326
 1263SOL     OW 3607   1.824   2.054   4.951
 1263SOL    HW1 3608   1.820   1.964   4.995
 1263SOL    HW2 3609   1.827   2.043   4.852
 1264SOL     OW 3610   0.428   2.286   4.244
 1264SOL    HW1 3611   0.458   2.214   4.182
 1264SOL    HW2 3612   0.389   2.246   4.327
 1265SOL     OW 3613   1.705   3.349   4.828
 1265SOL    HW1 3614   1.612   3.324   4.801
 1265SOL    HW2 3615   1.731   3.299   4.910
 1266SOL     OW 3616   0.812   3.448   4.411
 1266SOL    HW1 3617   0.844   3.458   4.317
 1266SOL    HW2 3618   0.733   3.386   4.413
 1267SOL     OW 3619   1.424   2.076   4.836
 1267SOL    HW1 3620   1.476   2.011   4.891
 1267SOL    HW2 3621   1.375   2.139   4.897
 1268SOL     OW 3622   1.001   1.896   4.878
 1268SOL    HW1 3623   0.938   1.824   4.847
 1268SOL    HW2 3624   1.094   1.860   4.878
 1269SOL     OW 3625   0.770   3.192   4.025
 1269SOL    HW1 3626   0.724   3.105   4.042
 1269SOL    HW2 3627   0.861   3.189   4.066
 1270SOL     OW 3628   1.352   1.914   3.892
 1270SOL    HW1 3629   1.387   1.873   3.808
 1270SOL    HW2 3630   1.262   1.876   3.912
 1271SOL     OW 3631   1.300   2.315   4.415
 1271SOL    HW1 3632   1.241   2.395   4.419
 1271SOL    HW2 3633   1.315   2.280   4.508
 1272SOL     OW 3634   1.593   2.083   4.606
 1272SOL    HW1 3635   1.509   2.082   4.660
 1272SOL    HW2 3636   1.595   2.166   4.550
 1273SOL     OW 3637   0.039   2.939   4.024
 1273SOL    HW1 3638   0.138   2.928   4.015
 1273SOL    HW2 3639  -0.001   2.853   4.056
 1274SOL     OW 3640   0.875   3.508   4.061
 1274SOL    HW1 3641   0.798   3.473   4.007
 1274SOL    HW2 3642   0.843   3.579   4.123
 1275SOL     OW 3643   0.230   4.352   0.113
 1275SOL    HW1 3644   0.137   4.350   0.150
 1275SOL    HW2 3645   0.231   4.313   0.021
 1276SOL     OW 3646   0.225   3.999   0.996
 1276SOL    HW1 3647   0.260   3.982   1.088
 1276SOL    HW2 3648   0.137   3.954   0.984
 1277SOL     OW 3649   0.019   4.092   0.647
 1277SOL    HW1 3650  -0.063   4.135   0.686
 1277SOL    HW2 3651  -0.009   4.019   0.584
 1278SOL     OW 3652   0.569   4.999   1.165
 1278SOL    HW1 3653   0.476   4.992   1.128
 1278SOL    HW2 3654   0.580   5.088   1.209
 1279SOL     OW 3655   1.555   5.235   0.703
 1279SOL    HW1 3656   1.498   5.219   0.784
 1279SOL    HW2 3657   1.496   5.245   0.623
 1280SOL     OW 3658   1.135   4.427   0.717
 1280SOL    HW1 3659   1.192   4.505   0.692
 1280SOL    HW2 3660   1.075   4.453   0.793
 1281SOL     OW 3661   1.755   4.331   0.231
 1281SOL    HW1 3662   1.743   4.318   0.132
 1281SOL    HW2 3663   1.725   4.250   0.280
 1282SOL     OW 3664   0.768   4.868   1.023
 1282SOL    HW1 3665   0.690   4.885   1.083
 1282SOL    HW2 3666   0.802   4.955   0.987
 1283SOL     OW 3667   0.850   4.522   1.823
 1283SOL    HW1 3668   0.846   4.598   1.888
 1283SOL    HW2 3669   0.872   4.558   1.732
 1284SOL     OW 3670   0.685   4.736   0.665
 1284SOL    HW1 3671   0.754   4.720   0.735
 1284SOL    HW2 3672   0.612   4.793   0.703
 1285SOL     OW 3673   0.686   4.885   1.803
 1285SOL    HW1 3674   0.746   4.964   1.817
 1285SOL    HW2 3675   0.600   4.916   1.762
 1286SOL     OW 3676   0.335   5.159   1.061
 1286SOL    HW1 3677   0.257   5.128   1.008
 1286SOL    HW2 3678   0.393   5.217   1.004
 1287SOL     OW 3679   0.438   4.116   1.499
 1287SOL    HW1 3680   0.520   4.060   1.508
 1287SOL    HW2 3681   0.357   4.058   1.503
 1288SOL     OW 3682   1.603   4.171   0.737
 1288SOL    HW1 3683   1.529   4.217   0.687
 1288SOL    HW2 3684   1.654   4.239   0.790
 1289SOL     OW 3685   0.240   4.815   0.886
 1289SOL    HW1 3686   0.254   4.731   0.938
 1289SOL    HW2 3687   0.185   4.879   0.941
 1290SOL     OW 3688   0.606   4.688   0.123
 1290SOL    HW1 3689   0.613   4.772   0.069
 1290SOL    HW2 3690   0.652   4.701   0.211
 1291SOL     OW 3691   1.594   3.838   1.480
 1291SOL    HW1 3692   1.576   3.905   1.408
 1291SOL    HW2 3693   1.591   3.884   1.569
 1292SOL     OW 3694   0.122   4.367   0.563
 1292SOL    HW1 3695   0.077   4.279   0.580
 1292SOL    HW2 3696   0.121   4.421   0.647
 1293SOL     OW 3697   1.689   4.646   0.612
 1293SOL    HW1 3698   1.784   4.617   0.620
 1293SOL    HW2 3699   1.681   4.711   0.537
 1294SOL     OW 3700   1.641   4.832   0.432
 1294SOL    HW1 3701   1.727   4.834   0.380
 1294SOL    HW2 3702   1.655   4.879   0.520
 1295SOL     OW 3703   0.113   4.461   1.597
 1295SOL    HW1 3704   0.201   4.448   1.642
 1295SOL    HW2 3705   0.100   4.558   1.575
 1296SOL     OW 3706   1.293   4.952   1.423
 1296SOL    HW1 3707   1.330   4.879   1.365
 1296SOL    HW2 3708   1.345   4.957   1.508
 1297SOL     OW 3709   0.809   3.728   0.502
 1297SOL    HW1 3710   0.849   3.819   0.493
 1297SOL    HW2 3711   0.709   3.736   0.508
 1298SOL     OW 3712   0.197   4.700   1.264
 1298SOL    HW1 3713   0.286   4.655   1.250
 1298SOL    HW2 3714   0.124   4.635   1.245
 1299SOL     OW 3715   1.525   4.723   0.190
 1299SOL    HW1 3716   1.462   4.647   0.203
 1299SOL    HW2 3717   1.573   4.741   0.276
 1300SOL     OW 3718   0.317   3.975   1.801
 1300SOL    HW1 3719   0.388   4.046   1.807
 1300SOL    HW2 3720   0.229   4.014   1.829
 1301SOL     OW 3721   1.466   5.141   0.953
 1301SOL    HW1 3722   1.407   5.147   1.033
 1301SOL    HW2 3723   1.451   5.053   0.907
 1302SOL     OW 3724   0.598   4.453   0.270
 1302SOL    HW1 3725   0.622   4.522   0.202
 1302SOL    HW2 3726   0.520   4.486   0.324
 1303SOL     OW 3727   1.281   4.069   0.944
 1303SOL    HW1 3728   1.195   4.019   0.931
 1303SOL    HW2 3729   1.343   4.015   1.000
 1304SOL     OW 3730   0.807   4.329   1.465
 1304SOL    HW1 3731   0.760   4.326   1.554
 1304SOL    HW2 3732   0.756   4.274   1.399
 1305SOL     OW 3733   1.394   4.193   1.674
 1305SOL    HW1 3734   1.374   4.236   1.762
 1305SOL    HW2 3735   1.472   4.131   1.683
 1306SOL     OW 3736   0.973   4.614   1.572
 1306SOL    HW1 3737   1.019   4.530   1.543
 1306SOL    HW2 3738   0.917   4.648   1.497
 1307SOL     OW 3739   0.991   4.134   1.242
 1307SOL    HW1 3740   0.914   4.168   1.296
 1307SOL    HW2 3741   0.957   4.083   1.163
 1308SOL     OW 3742   1.041   4.425   0.429
 1308SOL    HW1 3743   1.067   4.421   0.525
 1308SOL    HW2 3744   0.956   4.374   0.415
 1309SOL     OW 3745   0.076   4.535   0.789
 1309SOL    HW1 3746   0.175   4.523   0.798
 1309SOL    HW2 3747   0.052   4.630   0.810
 1310SOL     OW 3748   0.865   4.072   0.195
 1310SOL    HW1 3749   0.924   4.135   0.146
 1310SOL    HW2 3750   0.884   3.978   0.166
 1311SOL     OW 3751   1.719   4.309   1.831
 1311SOL    HW1 3752   1.693   4.398   1.795
 1311SOL    HW2 3753   1.717   4.241   1.758
 1312SOL     OW 3754   1.362   4.868   0.545
 1312SOL    HW1 3755   1.445   4.839   0.497
 1312SOL    HW2 3756   1.313   4.935   0.489
 1313SOL     OW 3757   0.550   3.920   0.885
 1313SOL    HW1 3758   0.545   3.915   0.985
 1313SOL    HW2 3759   0.552   4.016   0.856
 1314SOL     OW 3760   1.795   4.790   0.873
 1314SOL    HW1 3761   1.733   4.775   0.797
 1314SOL    HW2 3762   1.743   4.801   0.958
 1315SOL     OW 3763   0.321   4.667   0.242
 1315SOL    HW1 3764   0.403   4.706   0.200
 1315SOL    HW2 3765   0.294   4.585   0.193
 1316SOL     OW 3766   1.458   4.459   0.728
 1316SOL    HW1 3767   1.453   4.394   0.803
 1316SOL    HW2 3768   1.538   4.518   0.741
 1317SOL     OW 3769   0.202   4.009   1.498
 1317SOL    HW1 3770   0.122   4.069   1.485
 1317SOL    HW2 3771   0.192   3.960   1.584
 1318SOL     OW 3772   1.632   5.101   0.081
 1318SOL    HW1 3773   1.600   5.195   0.071
 1318SOL    HW2 3774   1.556   5.038   0.069
 1319SOL     OW 3775   1.400   3.831   0.426
 1319SOL    HW1 3776   1.376   3.794   0.336
 1319SOL    HW2 3777   1.499   3.847   0.430
 1320SOL     OW 3778   0.382   4.424   0.480
 1320SOL    HW1 3779   0.427   4.334   0.477
 1320SOL    HW2 3780   0.288   4.413   0.513
 1321SOL     OW 3781   1.547   3.946   1.729
 1321SOL    HW1 3782   1.542   3.983   1.821
 1321SOL    HW2 3783   1.475   3.877   1.717
 1322SOL     OW 3784   0.781   3.988   1.749
 1322SOL    HW1 3785   0.848   3.927   1.792
 1322SOL    HW2 3786   0.708   4.007   1.814
 1323SOL     OW 3787   1.351   4.314   1.433
 1323SOL    HW1 3788   1.379   4.271   1.518
 1323SOL    HW2 3789   1.376   4.410   1.434
 1324SOL     OW 3790   0.803   5.126   0.924
 1324SOL    HW1 3791   0.893   5.140   0.882
 1324SOL    HW2 3792   0.732   5.128   0.853
 1325SOL     OW 3793   0.922   4.227   0.899
 1325SOL    HW1 3794   0.897   4.218   0.803
 1325SOL    HW2 3795   0.970   4.145   0.930
 1326SOL     OW 3796   0.539   3.788   0.512
 1326SOL    HW1 3797   0.458   3.789   0.570
 1326SOL    HW2 3798   0.542   3.871   0.457
 1327SOL     OW 3799   1.434   4.912   0.041
 1327SOL    HW1 3800   1.466   4.836   0.098
 1327SOL    HW2 3801   1.342   4.939   0.071
 1328SOL     OW 3802   0.297   3.759   0.171
 1328SOL    HW1 3803   0.346   3.843   0.150
 1328SOL    HW2 3804   0.359   3.694   0.216
 1329SOL     OW 3805   0.935   3.960   0.480
 1329SOL    HW1 3806   0.887   4.001   0.402
 1329SOL    HW2 3807   1.034   3.958   0.461
 1330SOL     OW 3808   1.076   4.407   1.464
 1330SOL    HW1 3809   0.996   4.346   1.467
 1330SOL    HW2 3810   1.157   4.354   1.440
 1331SOL     OW 3811   1.227   5.294   0.793
 1331SOL    HW1 3812   1.248   5.368   0.728
 1331SOL    HW2 3813   1.295   5.294   0.866
 1332SOL     OW 3814   0.459   4.876   0.741
 1332SOL    HW1 3815   0.388   4.849   0.806
 1332SOL    HW2 3816   0.433   4.848   0.648
 1333SOL     OW 3817   1.032   4.273   0.016
 1333SOL    HW1 3818   0.991   4.355  -0.023
 1333SOL    HW2 3819   1.096   4.299   0.089
 1334SOL     OW 3820   0.078   4.280   1.386
 1334SOL    HW1 3821   0.170   4.279   1.345
 1334SOL    HW2 3822   0.072   4.354   1.453
 1335SOL     OW 3823   0.561   3.946   1.147
 1335SOL    HW1 3824   0.599   3.862   1.184
 1335SOL    HW2 3825   0.473   3.965   1.191
 1336SOL     OW 3826   0.866   4.178   0.642
 1336SOL    HW1 3827   0.834   4.250   0.580
 1336SOL    HW2 3828   0.890   4.097   0.589
 1337SOL     OW 3829   1.017   3.763   0.753
 1337SOL    HW1 3830   0.945   3.768   0.684
 1337SOL    HW2 3831   0.993   3.694   0.822
 1338SOL     OW 3832   1.429   4.897   0.867
 1338SOL    HW1 3833   1.374   4.813   0.860
 1338SOL    HW2 3834   1.455   4.926   0.775
 1339SOL     OW 3835   1.466   4.314   0.992
 1339SOL    HW1 3836   1.436   4.219   0.999
 1339SOL    HW2 3837   1.539   4.330   1.058
 1340SOL     OW 3838   1.857   4.557   0.377
 1340SOL    HW1 3839   1.899   4.493   0.441
 1340SOL    HW2 3840   1.819   4.506   0.299
 1341SOL     OW 3841   1.664   5.004   0.657
 1341SOL    HW1 3842   1.763   5.012   0.671
 1341SOL    HW2 3843   1.619   5.088   0.688
 1342SOL     OW 3844   1.390   4.299   0.078
 1342SOL    HW1 3845   1.336   4.278   0.159
 1342SOL    HW2 3846   1.481   4.258   0.087
 1343SOL     OW 3847   0.527   3.980   0.328
 1343SOL    HW1 3848   0.554   3.921   0.253
 1343SOL    HW2 3849   0.527   4.075   0.297
 1344SOL     OW 3850   1.754   4.947   1.588
 1344SOL    HW1 3851   1.845   4.908   1.575
 1344SOL    HW2 3852   1.762   5.043   1.612
 1345SOL     OW 3853   1.638   4.823   1.079
 1345SOL    HW1 3854   1.643   4.904   1.138
 1345SOL    HW2 3855   1.552   4.825   1.028
 1346SOL     OW 3856   0.915   3.813   1.402
 1346SOL    HW1 3857   0.940   3.793   1.307
 1346SOL    HW2 3858   0.987   3.869   1.444
 1347SOL     OW 3859   0.980   4.840   1.719
 1347SOL    HW1 3860   0.881   4.846   1.729
 1347SOL    HW2 3861   1.003   4.760   1.663
 1348SOL     OW 3862   0.705   4.774   0.368
 1348SOL    HW1 3863   0.691   4.781   0.467
 1348SOL    HW2 3864   0.789   4.723   0.350
 1349SOL     OW 3865   0.410   4.537   1.251
 1349SOL    HW1 3866   0.496   4.549   1.301
 1349SOL    HW2 3867   0.368   4.450   1.278
 1350SOL     OW 3868   1.274   4.110   1.262
 1350SOL    HW1 3869   1.295   4.184   1.326
 1350SOL    HW2 3870   1.185   4.127   1.219
 1351SOL     OW 3871   0.367   4.824   0.501
 1351SOL    HW1 3872   0.360   4.907   0.445
 1351SOL    HW2 3873   0.371   4.744   0.441
 1352SOL     OW 3874   0.566   4.261   0.865
 1352SOL    HW1 3875   0.578   4.327   0.791
 1352SOL    HW2 3876   0.612   4.295   0.948
 1353SOL     OW 3877   1.582   4.363   0.472
 1353SOL    HW1 3878   1.551   4.424   0.545
 1353SOL    HW2 3879   1.632   4.415   0.403
 1354SOL     OW 3880   0.402   4.475   1.598
 1354SOL    HW1 3881   0.470   4.530   1.551
 1354SOL    HW2 3882   0.442   4.387   1.625
 1355SOL     OW 3883   1.587   4.503   1.670
 1355SOL    HW1 3884   1.495   4.541   1.665
 1355SOL    HW2 3885   1.647   4.550   1.605
 1356SOL     OW 3886   1.013   3.829   1.770
 1356SOL    HW1 3887   1.019   3.914   1.718
 1356SOL    HW2 3888   1.045   3.753   1.713
 1357SOL     OW 3889   0.504   3.774   1.740
 1357SOL    HW1 3890   0.462   3.717   1.670
 1357SOL    HW2 3891   0.438   3.843   1.772
 1358SOL     OW 3892   0.573   4.594   1.029
 1358SOL    HW1 3893   0.617   4.683   1.020
 1358SOL    HW2 3894   0.510   4.594   1.106
 1359SOL     OW 3895   1.360   4.586   1.045
 1359SOL    HW1 3896   1.285   4.586   0.979
 1359SOL    HW2 3897   1.397   4.494   1.054
 1360SOL     OW 3898   1.209   4.249   0.275
 1360SOL    HW1 3899   1.222   4.165   0.329
 1360SOL    HW2 3900   1.180   4.323   0.335
 1361SOL     OW 3901   0.307   3.937   1.231
 1361SOL    HW1 3902   0.284   3.974   1.321
 1361SOL    HW2 3903   0.277   3.842   1.225
 1362SOL     OW 3904   0.037   5.034   1.282
 1362SOL    HW1 3905   0.090   4.985   1.350
 1362SOL    HW2 3906   0.059   5.132   1.287
 1363SOL     OW 3907   0.732   4.358   1.064
 1363SOL    HW1 3908   0.791   4.332   0.988
 1363SOL    HW2 3909   0.704   4.454   1.053
 1364SOL     OW 3910   1.728   4.659   1.854
 1364SOL    HW1 3911   1.682   4.652   1.765
 1364SOL    HW2 3912   1.666   4.703   1.920
 1365SOL     OW 3913   0.307   3.787   0.618
 1365SOL    HW1 3914   0.296   3.881   0.651
 1365SOL    HW2 3915   0.302   3.724   0.695
 1366SOL     OW 3916   1.622   4.091   0.374
 1366SOL    HW1 3917   1.624   4.015   0.438
 1366SOL    HW2 3918   1.574   4.168   0.414
 1367SOL     OW 3919   1.023   4.490   0.966
 1367SOL    HW1 3920   1.038   4.511   1.062
 1367SOL    HW2 3921   0.993   4.395   0.957
 1368SOL     OW 3922   1.859   5.242   1.605
 1368SOL    HW1 3923   1.873   5.269   1.510
 1368SOL    HW2 3924   1.942   5.264   1.658
 1369SOL     OW 3925   0.350   4.622   1.804
 1369SOL    HW1 3926   0.426   4.666   1.852
 1369SOL    HW2 3927   0.385   4.575   1.722
 1370SOL     OW 3928   1.540   3.998   0.125
 1370SOL    HW1 3929   1.479   3.923   0.148
 1370SOL    HW2 3930   1.562   4.050   0.208
 1371SOL     OW 3931   1.303   4.562   0.042
 1371SOL    HW1 3932   1.337   4.469   0.057
 1371SOL    HW2 3933   1.321   4.589  -0.053
 1372SOL     OW 3934   0.319   4.534   0.949
 1372SOL    HW1 3935   0.412   4.570   0.954
 1372SOL    HW2 3936   0.313   4.449   1.001
 1373SOL     OW 3937   0.339   4.233   1.006
 1373SOL    HW1 3938   0.287   4.150   0.989
 1373SOL    HW2 3939   0.416   4.238   0.942
 1374SOL     OW 3940   1.138   4.104   1.678
 1374SOL    HW1 3941   1.093   4.167   1.742
 1374SOL    HW2 3942   1.231   4.135   1.661
 1375SOL     OW 3943   1.160   3.931   1.477
 1375SOL    HW1 3944   1.160   3.995   1.554
 1375SOL    HW2 3945   1.188   3.979   1.394
 1376SOL     OW 3946   0.008   5.050   0.200
 1376SOL    HW1 3947  -0.085   5.071   0.169
 1376SOL    HW2 3948   0.018   4.951   0.213
 1377SOL     OW 3949   1.002   4.520   1.238
 1377SOL    HW1 3950   1.043   4.488   1.324
 1377SOL    HW2 3951   0.906   4.493   1.235
 1378SOL     OW 3952   0.040   4.268   1.114
 1378SOL    HW1 3953   0.125   4.235   1.073
 1378SOL    HW2 3954   0.053   4.283   1.212
 1379SOL     OW 3955   0.189   4.244   1.722
 1379SOL    HW1 3956   0.248   4.204   1.652
 1379SOL    HW2 3957   0.131   4.315   1.681
 1380SOL     OW 3958   1.369   4.674   1.660
 1380SOL    HW1 3959   1.408   4.763   1.680
 1380SOL    HW2 3960   1.379   4.654   1.563
 1381SOL     OW 3961   0.815   4.296   0.325
 1381SOL    HW1 3962   0.822   4.207   0.279
 1381SOL    HW2 3963   0.721   4.330   0.317
 1382SOL     OW 3964   1.657   4.328   1.206
 1382SOL    HW1 3965   1.619   4.259   1.268
 1382SOL    HW2 3966   1.739   4.292   1.162
 1383SOL     OW 3967   0.671   4.188   1.269
 1383SOL    HW1 3968   0.637   4.099   1.239
 1383SOL    HW2 3969   0.697   4.242   1.189
 1384SOL     OW 3970   0.473   4.224   0.191
 1384SOL    HW1 3971   0.534   4.304   0.195
 1384SOL    HW2 3972   0.378   4.255   0.198
 1385SOL     OW 3973   0.159   4.861   1.466
 1385SOL    HW1 3974   0.181   4.800   1.542
 1385SOL    HW2 3975   0.169   4.812   1.380
 1386SOL     OW 3976   1.347   4.783   1.234
 1386SOL    HW1 3977   1.371   4.720   1.160
 1386SOL    HW2 3978   1.257   4.823   1.216
 1387SOL     OW 3979   1.302   4.579   0.309
 1387SOL    HW1 3980   1.216   4.548   0.351
 1387SOL    HW2 3981   1.298   4.565   0.210
 1388SOL     OW 3982   0.083   4.982   1.022
 1388SOL    HW1 3983   0.078   4.981   1.122
 1388SOL    HW2 3984   0.000   4.941   0.984
 1389SOL     OW 3985   0.903   3.810   0.133
 1389SOL    HW1 3986   0.954   3.811   0.047
 1389SOL    HW2 3987   0.959   3.768   0.204
 1390SOL     OW 3988   1.726   3.859   0.523
 1390SOL    HW1 3989   1.799   3.842   0.456
 1390SOL    HW2 3990   1.695   3.772   0.561
 1391SOL     OW 3991   1.280   4.651   0.672
 1391SOL    HW1 3992   1.340   4.570   0.674
 1391SOL    HW2 3993   1.320   4.720   0.612
 1392SOL     OW 3994   0.830   4.997   1.422
 1392SOL    HW1 3995   0.825   5.030   1.517
 1392SOL    HW2 3996   0.744   5.016   1.376
 1393SOL     OW 3997   1.841   3.899   0.963
 1393SOL    HW1 3998   1.880   3.814   0.927
 1393SOL    HW2 3999   1.743   3.901   0.944
 1394SOL     OW 4000   0.263   4.050   0.720
 1394SOL    HW1 4001   0.184   4.101   0.686
 1394SOL    HW2 4002   0.254   4.035   0.818
 1395SOL     OW 4003   0.822   4.726   1.372
 1395SOL    HW1 4004   0.862   4.725   1.280
 1395SOL    HW2 4005   0.832   4.818   1.412
 1396SOL     OW 4006   0.916   4.634   0.291
 1396SOL    HW1 4007   0.979   4.672   0.223
 1396SOL    HW2 4008   0.956   4.551   0.330
 1397SOL     OW 4009   0.372   5.012   1.490
 1397SOL    HW1 4010   0.359   5.105   1.456
 1397SOL    HW2 4011   0.288   4.960   1.477
 1398SOL     OW 4012   1.614   5.016   1.289
 1398SOL    HW1 4013   1.674   5.019   1.369
 1398SOL    HW2 4014   1.539   5.080   1.302
 1399SOL     OW 4015   1.039   4.822   0.696
 1399SOL    HW1 4016   0.969   4.775   0.750
 1399SOL    HW2 4017   1.098   4.754   0.653
 1400SOL     OW 4018   1.014   3.960   0.971
 1400SOL    HW1 4019   1.006   3.924   0.878
 1400SOL    HW2 4020   1.012   3.884   1.036
 1401SOL     OW 4021   1.709   4.109   1.381
 1401SOL    HW1 4022   1.782   4.178   1.385
 1401SOL    HW2 4023   1.737   4.034   1.322
 1402SOL     OW 4024   0.105   4.737   1.726
 1402SOL    HW1 4025   0.028   4.704   1.780
 1402SOL    HW2 4026   0.190   4.707   1.768
 1403SOL     OW 4027   0.672   3.927   1.489
 1403SOL    HW1 4028   0.762   3.911   1.449
 1403SOL    HW2 4029   0.680   3.932   1.588
 1404SOL     OW 4030   0.075   4.069   0.033
 1404SOL    HW1 4031  -0.017   4.041   0.004
 1404SOL    HW2 4032   0.106   4.146  -0.023
 1405SOL     OW 4033   1.440   4.580   1.398
 1405SOL    HW1 4034   1.383   4.632   1.335
 1405SOL    HW2 4035   1.536   4.592   1.374
 1406SOL     OW 4036   0.072   3.890   0.318
 1406SOL    HW1 4037   0.055   3.973   0.264
 1406SOL    HW2 4038   0.162   3.853   0.296
 1407SOL     OW 4039   0.613   4.566   1.431
 1407SOL    HW1 4040   0.669   4.647   1.414
 1407SOL    HW2 4041   0.672   4.486   1.434
 1408SOL     OW 4042   0.716   4.289   1.708
 1408SOL    HW1 4043   0.735   4.354   1.782
 1408SOL    HW2 4044   0.776   4.209   1.717
 1409SOL     OW 4045   1.450   4.944   1.633
 1409SOL    HW1 4046   1.441   4.934   1.732
 1409SOL    HW2 4047   1.546   4.937   1.607
 1410SOL     OW 4048   1.674   4.607   1.254
 1410SOL    HW1 4049   1.647   4.518   1.217
 1410SOL    HW2 4050   1.675   4.675   1.181
 1411SOL     OW 4051   1.225   4.049   0.449
 1411SOL    HW1 4052   1.290   3.975   0.438
 1411SOL    HW2 4053   1.245   4.099   0.533
 1412SOL     OW 4054   0.594   4.469   0.652
 1412SOL    HW1 4055   0.644   4.554   0.633
 1412SOL    HW2 4056   0.506   4.471   0.604
 1413SOL     OW 4057   1.777   4.066   1.642
 1413SOL    HW1 4058   1.760   4.097   1.548
 1413SOL    HW2 4059   1.693   4.029   1.680
 1414SOL     OW 4060   1.730   4.658   1.517
 1414SOL    HW1 4061   1.768   4.749   1.532
 1414SOL    HW2 4062   1.722   4.641   1.418
 1415SOL     OW 4063   0.859   4.680   0.861
 1415SOL    HW1 4064   0.913   4.611   0.909
 1415SOL    HW2 4065   0.827   4.749   0.927
 1416SOL     OW 4066   1.083   4.708   0.087
 1416SOL    HW1 4067   1.060   4.761   0.005
 1416SOL    HW2 4068   1.164   4.652   0.068
 1417SOL     OW 4069   0.079   4.964   0.653
 1417SOL    HW1 4070   0.078   4.917   0.741
 1417SOL    HW2 4071   0.161   4.936   0.602
 1418SOL     OW 4072   1.824   3.916   1.227
 1418SOL    HW1 4073   1.820   3.826   1.271
 1418SOL    HW2 4074   1.827   3.905   1.128
 1419SOL     OW 4075   0.428   4.148   0.520
 1419SOL    HW1 4076   0.458   4.076   0.458
 1419SOL    HW2 4077   0.389   4.108   0.603
 1420SOL     OW 4078   0.317   4.271   1.280
 1420SOL    HW1 4079   0.355   4.212   1.352
 1420SOL    HW2 4080   0.357   4.245   1.192
 1421SOL     OW 4081   1.424   3.938   1.112
 1421SOL    HW1 4082   1.476   3.873   1.167
 1421SOL    HW2 4083   1.375   4.001   1.173
 1422SOL     OW 4084   1.001   3.758   1.154
 1422SOL    HW1 4085   0.938   3.686   1.123
 1422SOL    HW2 4086   1.094   3.722   1.154
 1423SOL     OW 4087   0.770   5.054   0.301
 1423SOL    HW1 4088   0.724   4.967   0.318
 1423SOL    HW2 4089   0.861   5.051   0.342
 1424SOL     OW 4090   1.352   3.776   0.168
 1424SOL    HW1 4091   1.387   3.735   0.084
 1424SOL    HW2 4092   1.262   3.738   0.188
 1425SOL     OW 4093   1.300   4.177   0.691
 1425SOL    HW1 4094   1.241   4.257   0.695
 1425SOL    HW2 4095   1.315   4.142   0.784
 1426SOL     OW 4096   1.593   3.945   0.882
 1426SOL    HW1 4097   1.509   3.944   0.936
 1426SOL    HW2 4098   1.595   4.028   0.826
 1427SOL     OW 4099   0.039   4.801   0.300
 1427SOL    HW1 4100   0.138   4.790   0.291
 1427SOL    HW2 4101  -0.001   4.715   0.332
 1428SOL     OW 4102   0.230   4.352   1.975
 1428SOL    HW1 4103   0.137   4.350   2.012
 1428SOL    HW2 4104   0.231   4.313   1.883
 1429SOL     OW 4105   0.225   3.999   2.858
 1429SOL    HW1 4106   0.260   3.982   2.950
 1429SOL    HW2 4107   0.137   3.954   2.846
 1430SOL     OW 4108   0.019   4.092   2.509
 1430SOL    HW1 4109  -0.063   4.135   2.548
 1430SOL    HW2 4110  -0.009   4.019   2.446
 1431SOL     OW 4111   0.569   4.999   3.027
 1431SOL    HW1 4112   0.476   4.992   2.990
 1431SOL    HW2 4113   0.580   5.088   3.071
 1432SOL     OW 4114   1.555   5.235   2.565
 1432SOL    HW1 4115   1.498   5.219   2.646
 1432SOL    HW2 4116   1.496   5.245   2.485
 1433SOL     OW 4117   1.135   4.427   2.579
 1433SOL    HW1 4118   1.192   4.505   2.554
 1433SOL    HW2 4119   1.075   4.453   2.655
 1434SOL     OW 4120   1.755   4.331   2.093
 1434SOL    HW1 4121   1.743   4.318   1.994
 1434SOL    HW2 4122   1.725   4.250   2.142
 1435SOL     OW 4123   0.768   4.868   2.885
 1435SOL    HW1 4124   0.690   4.885   2.945
 1435SOL    HW2 4125   0.802   4.955   2.849
 1436SOL     OW 4126   0.850   4.522   3.685
 1436SOL    HW1 4127   0.846   4.598   3.750
 1436SOL    HW2 4128   0.872   4.558   3.594
 1437SOL     OW 4129   0.685   4.736   2.527
 1437SOL    HW1 4130   0.754   4.720   2.597
 1437SOL    HW2 4131   0.612   4.793   2.565
 1438SOL     OW 4132   0.686   4.885   3.665
 1438SOL    HW1 4133   0.746   4.964   3.679
 1438SOL    HW2 4134   0.600   4.916   3.624
 1439SOL     OW 4135   0.335   5.159   2.923
 1439SOL    HW1 4136   0.257   5.128   2.870
 1439SOL    HW2 4137   0.393   5.217   2.866
 1440SOL     OW 4138   0.438   4.116   3.361
 1440SOL    HW1 4139   0.520   4.060   3.370
 1440SOL    HW2 4140   0.357   4.058   3.365
 1441SOL     OW 4141   1.603   4.171   2.599
 1441SOL    HW1 4142   1.529   4.217   2.549
 1441SOL    HW2 4143   1.654   4.239   2.652
 1442SOL     OW 4144   0.240   4.815   2.748
 1442SOL    HW1 4145   0.254   4.731   2.800
 1442SOL    HW2 4146   0.185   4.879   2.803
 1443SOL     OW 4147   0.606   4.688   1.985
 1443SOL    HW1 4148   0.613   4.772   1.931
 1443SOL    HW2 4149   0.652   4.701   2.073
 1444SOL     OW 4150   1.594   3.838   3.342
 1444SOL    HW1 4151   1.576   3.905   3.270
 1444SOL    HW2 4152   1.591   3.884   3.431
 1445SOL     OW 4153   0.122   4.367   2.425
 1445SOL    HW1 4154   0.077   4.279   2.442
 1445SOL    HW2 4155   0.121   4.421   2.509
 1446SOL     OW 4156   1.689   4.646   2.474
 1446SOL    HW1 4157   1.784   4.617   2.482
 1446SOL    HW2 4158   1.681   4.711   2.399
 1447SOL     OW 4159   1.641   4.832   2.294
 1447SOL    HW1 4160   1.727   4.834   2.242
 1447SOL    HW2 4161   1.655   4.879   2.382
 1448SOL     OW 4162   0.113   4.461   3.459
 1448SOL    HW1 4163   0.201   4.448   3.504
 1448SOL    HW2 4164   0.100   4.558   3.437
 1449SOL     OW 4165   1.293   4.952   3.285
 1449SOL    HW1 4166   1.330   4.879   3.227
 1449SOL    HW2 4167   1.345   4.957   3.370
 1450SOL     OW 4168   0.809   3.728   2.364
 1450SOL    HW1 4169   0.849   3.819   2.355
 1450SOL    HW2 4170   0.709   3.736   2.370
 1451SOL     OW 4171   0.197   4.700   3.126
 1451SOL    HW1 4172   0.286   4.655   3.112
 1451SOL    HW2 4173   0.124   4.635   3.107
 1452SOL     OW 4174   1.525   4.723   2.052
 1452SOL    HW1 4175   1.462   4.647   2.065
 1452SOL    HW2 4176   1.573   4.741   2.138
 1453SOL     OW 4177   0.317   3.975   3.663
 1453SOL    HW1 4178   0.388   4.046   3.669
 1453SOL    HW2 4179   0.229   4.014   3.691
 1454SOL     OW 4180   1.466   5.141   2.815
 1454SOL    HW1 4181   1.407   5.147   2.895
 1454SOL    HW2 4182   1.451   5.053   2.769
 1455SOL     OW 4183   0.598   4.453   2.132
 1455SOL    HW1 4184   0.622   4.522   2.064
 1455SOL    HW2 4185   0.520   4.486   2.186
 1456SOL     OW 4186   1.281   4.069   2.806
 1456SOL    HW1 4187   1.195   4.019   2.793
 1456SOL    HW2 4188   1.343   4.015   2.862
 1457SOL     OW 4189   0.807   4.329   3.327
 1457SOL    HW1 4190   0.760   4.326   3.416
 1457SOL    HW2 4191   0.756   4.274   3.261
 1458SOL     OW 4192   1.394   4.193   3.536
 1458SOL    HW1 4193   1.374   4.236   3.624
 1458SOL    HW2 4194   1.472   4.131   3.545
 1459SOL     OW 4195   0.973   4.614   3.434
 1459SOL    HW1 4196   1.019   4.530   3.405
 1459SOL    HW2 4197   0.917   4.648   3.359
 1460SOL     OW 4198   0.991   4.134   3.104
 1460SOL    HW1 4199   0.914   4.168   3.158
 1460SOL    HW2 4200   0.957   4.083   3.025
 1461SOL     OW 4201   1.041   4.425   2.291
 1461SOL    HW1 4202   1.067   4.421   2.387
 1461SOL    HW2 4203   0.956   4.374   2.277
 1462SOL     OW 4204   0.076   4.535   2.651
 1462SOL    HW1 4205   0.175   4.523   2.660
 1462SOL    HW2 4206   0.052   4.630   2.672
 1463SOL     OW 4207   0.865   4.072   2.057
 1463SOL    HW1 4208   0.924   4.135   2.008
 1463SOL    HW2 4209   0.884   3.978   2.028
 1464SOL     OW 4210   1.719   4.309   3.693
 1464SOL    HW1 4211   1.693   4.398   3.657
 1464SOL    HW2 4212   1.717   4.241   3.620
 1465SOL     OW 4213   1.362   4.868   2.407
 1465SOL    HW1 4214   1.445   4.839   2.359
 1465SOL    HW2 4215   1.313   4.935   2.351
 1466SOL     OW 4216   0.550   3.920   2.747
 1466SOL    HW1 4217   0.545   3.915   2.847
 1466SOL    HW2 4218   0.552   4.016   2.718
 1467SOL     OW 4219   1.795   4.790   2.735
 1467SOL    HW1 4220   1.733   4.775   2.659
 1467SOL    HW2 4221   1.743   4.801   2.820
 1468SOL     OW 4222   0.321   4.667   2.104
 1468SOL    HW1 4223   0.403   4.706   2.062
 1468SOL    HW2 4224   0.294   4.585   2.055
 1469SOL     OW 4225   1.458   4.459   2.590
 1469SOL    HW1 4226   1.453   4.394   2.665
 1469SOL    HW2 4227   1.538   4.518   2.603
 1470SOL     OW 4228   0.202   4.009   3.360
 1470SOL    HW1 4229   0.122   4.069   3.347
 1470SOL    HW2 4230   0.192   3.960   3.446
 1471SOL     OW 4231   1.632   5.101   1.943
 1471SOL    HW1 4232   1.600   5.195   1.933
 1471SOL    HW2 4233   1.556   5.038   1.931
 1472SOL     OW 4234   1.400   3.831   2.288
 1472SOL    HW1 4235   1.376   3.794   2.198
 1472SOL    HW2 4236   1.499   3.847   2.292
 1473SOL     OW 4237   0.382   4.424   2.342
 1473SOL    HW1 4238   0.427   4.334   2.339
 1473SOL    HW2 4239   0.288   4.413   2.375
 1474SOL     OW 4240   1.547   3.946   3.591
 1474SOL    HW1 4241   1.542   3.983   3.683
 1474SOL    HW2 4242   1.475   3.877   3.579
 1475SOL     OW 4243   0.614   3.846   1.979
 1475SOL    HW1 4244   0.712   3.824   1.986
 1475SOL    HW2 4245   0.583   3.829   1.886
 1476SOL     OW 4246   0.781   3.988   3.611
 1476SOL    HW1 4247   0.848   3.927   3.654
 1476SOL    HW2 4248   0.708   4.007   3.676
 1477SOL     OW 4249   1.351   4.314   3.295
 1477SOL    HW1 4250   1.379   4.271   3.380
 1477SOL    HW2 4251   1.376   4.410   3.296
 1478SOL     OW 4252   0.803   5.126   2.786
 1478SOL    HW1 4253   0.893   5.140   2.744
 1478SOL    HW2 4254   0.732   5.128   2.715
 1479SOL     OW 4255   0.922   4.227   2.761
 1479SOL    HW1 4256   0.897   4.218   2.665
 1479SOL    HW2 4257   0.970   4.145   2.792
 1480SOL     OW 4258   0.539   3.788   2.374
 1480SOL    HW1 4259   0.458   3.789   2.432
 1480SOL    HW2 4260   0.542   3.871   2.319
 1481SOL     OW 4261   1.434   4.912   1.903
 1481SOL    HW1 4262   1.466   4.836   1.960
 1481SOL    HW2 4263   1.342   4.939   1.933
 1482SOL     OW 4264   0.297   3.759   2.033
 1482SOL    HW1 4265   0.346   3.843   2.012
 1482SOL    HW2 4266   0.359   3.694   2.078
 1483SOL     OW 4267   0.935   3.960   2.342
 1483SOL    HW1 4268   0.887   4.001   2.264
 1483SOL    HW2 4269   1.034   3.958   2.323
 1484SOL     OW 4270   1.076   4.407   3.326
 1484SOL    HW1 4271   0.996   4.346   3.329
 1484SOL    HW2 4272   1.157   4.354   3.302
 1485SOL     OW 4273   1.227   5.294   2.655
 1485SOL    HW1 4274   1.248   5.368   2.590
 1485SOL    HW2 4275   1.295   5.294   2.728
 1486SOL     OW 4276   0.459   4.876   2.603
 1486SOL    HW1 4277   0.388   4.849   2.668
 1486SOL    HW2 4278   0.433   4.848   2.510
 1487SOL     OW 4279   1.032   4.273   1.878
 1487SOL    HW1 4280   0.991   4.355   1.839
 1487SOL    HW2 4281   1.096   4.299   1.951
 1488SOL     OW 4282   0.078   4.280   3.248
 1488SOL    HW1 4283   0.170   4.279   3.207
 1488SOL    HW2 4284   0.072   4.354   3.315
 1489SOL     OW 4285   0.561   3.946   3.009
 1489SOL    HW1 4286   0.599   3.862   3.046
 1489SOL    HW2 4287   0.473   3.965   3.053
 1490SOL     OW 4288   0.866   4.178   2.504
 1490SOL    HW1 4289   0.834   4.250   2.442
 1490SOL    HW2 4290   0.890   4.097   2.451
 1491SOL     OW 4291   1.017   3.763   2.615
 1491SOL    HW1 4292   0.945   3.768   2.546
 1491SOL    HW2 4293   0.993   3.694   2.684
 1492SOL     OW 4294   1.429   4.897   2.729
 1492SOL    HW1 4295   1.374   4.813   2.722
 1492SOL    HW2 4296   1.455   4.926   2.637
 1493SOL     OW 4297   1.466   4.314   2.854
 1493SOL    HW1 4298   1.436   4.219   2.861
 1493SOL    HW2 4299   1.539   4.330   2.920
 1494SOL     OW 4300   1.857   4.557   2.239
 1494SOL    HW1 4301   1.899   4.493   2.303
 1494SOL    HW2 4302   1.819   4.506   2.161
 1495SOL     OW 4303   1.664   5.004   2.519
 1495SOL    HW1 4304   1.763   5.012   2.533
 1495SOL    HW2 4305   1.619   5.088   2.550
 1496SOL     OW 4306   1.390   4.299   1.940
 1496SOL    HW1 4307   1.336   4.278   2.021
 1496SOL    HW2 4308   1.481   4.258   1.949
 1497SOL     OW 4309   0.527   3.980   2.190
 1497SOL    HW1 4310   0.554   3.921   2.115
 1497SOL    HW2 4311   0.527   4.075   2.159
 1498SOL     OW 4312   1.754   4.947   3.450
 1498SOL    HW1 4313   1.845   4.908   3.437
 1498SOL    HW2 4314   1.762   5.043   3.474
 1499SOL     OW 4315   1.638   4.823   2.941
 1499SOL    HW1 4316   1.643   4.904   3.000
 1499SOL    HW2 4317   1.552   4.825   2.890
 1500SOL     OW 4318   0.915   3.813   3.264
 1500SOL    HW1 4319   0.940   3.793   3.169
 1500SOL    HW2 4320   0.987   3.869   3.306
 1501SOL     OW 4321   0.980   4.840   3.581
 1501SOL    HW1 4322   0.881   4.846   3.591
 1501SOL    HW2 4323   1.003   4.760   3.525
 1502SOL     OW 4324   0.705   4.774   2.230
 1502SOL    HW1 4325   0.691   4.781   2.329
 1502SOL    HW2 4326   0.789   4.723   2.212
 1503SOL     OW 4327   0.410   4.537   3.113
 1503SOL    HW1 4328   0.496   4.549   3.163
 1503SOL    HW2 4329   0.368   4.450   3.140
 1504SOL     OW 4330   1.274   4.110   3.124
 1504SOL    HW1 4331   1.295   4.184   3.188
 1504SOL    HW2 4332   1.185   4.127   3.081
 1505SOL     OW 4333   0.367   4.824   2.363
 1505SOL    HW1 4334   0.360   4.907   2.307
 1505SOL    HW2 4335   0.371   4.744   2.303
 1506SOL     OW 4336   0.566   4.261   2.727
 1506SOL    HW1 4337   0.578   4.327   2.653
 1506SOL    HW2 4338   0.612   4.295   2.810
 1507SOL     OW 4339   1.582   4.363   2.334
 1507SOL    HW1 4340   1.551   4.424   2.407
 1507SOL    HW2 4341   1.632   4.415   2.265
 1508SOL     OW 4342   0.402   4.475   3.460
 1508SOL    HW1 4343   0.470   4.530   3.413
 1508SOL    HW2 4344   0.442   4.387   3.487
 1509SOL     OW 4345   1.587   4.503   3.532
 1509SOL    HW1 4346   1.495   4.541   3.527
 1509SOL    HW2 4347   1.647   4.550   3.467
 1510SOL     OW 4348   1.013   3.829   3.632
 1510SOL    HW1 4349   1.019   3.914   3.580
 1510SOL    HW2 4350   1.045   3.753   3.575
 1511SOL     OW 4351   0.504   3.774   3.602
 1511SOL    HW1 4352   0.462   3.717   3.532
 1511SOL    HW2 4353   0.438   3.843   3.634
 1512SOL     OW 4354   0.573   4.594   2.891
 1512SOL    HW1 4355   0.617   4.683   2.882
 1512SOL    HW2 4356   0.510   4.594   2.968
 1513SOL     OW 4357   1.360   4.586   2.907
 1513SOL    HW1 4358   1.285   4.586   2.841
 1513SOL    HW2 4359   1.397   4.494   2.916
 1514SOL     OW 4360   1.209   4.249   2.137
 1514SOL    HW1 4361   1.222   4.165   2.191
 1514SOL    HW2 4362   1.180   4.323   2.197
 1515SOL     OW 4363   0.307   3.937   3.093
 1515SOL    HW1 4364   0.284   3.974   3.183
 1515SOL    HW2 4365   0.277   3.842   3.087
 1516SOL     OW 4366   0.037   5.034   3.144
 1516SOL    HW1 4367   0.090   4.985   3.212
 1516SOL    HW2 4368   0.059   5.132   3.149
 1517SOL     OW 4369   0.732   4.358   2.926
 1517SOL    HW1 4370   0.791   4.332   2.850
 1517SOL    HW2 4371   0.704   4.454   2.915
 1518SOL     OW 4372   1.728   4.659   3.716
 1518SOL    HW1 4373   1.682   4.652   3.627
 1518SOL    HW2 4374   1.666   4.703   3.782
 1519SOL     OW 4375   0.307   3.787   2.480
 1519SOL    HW1 4376   0.296   3.881   2.513
 1519SOL    HW2 4377   0.302   3.724   2.557
 1520SOL     OW 4378   1.622   4.091   2.236
 1520SOL    HW1 4379   1.624   4.015   2.300
 1520SOL    HW2 4380   1.574   4.168   2.276
 1521SOL     OW 4381   1.023   4.490   2.828
 1521SOL    HW1 4382   1.038   4.511   2.924
 1521SOL    HW2 4383   0.993   4.395   2.819
 1522SOL     OW 4384   1.859   5.242   3.467
 1522SOL    HW1 4385   1.873   5.269   3.372
 1522SOL    HW2 4386   1.942   5.264   3.520
 1523SOL     OW 4387   0.350   4.622   3.666
 1523SOL    HW1 4388   0.426   4.666   3.714
 1523SOL    HW2 4389   0.385   4.575   3.584
 1524SOL     OW 4390   1.540   3.998   1.987
 1524SOL    HW1 4391   1.479   3.923   2.010
 1524SOL    HW2 4392   1.562   4.050   2.070
 1525SOL     OW 4393   1.303   4.562   1.904
 1525SOL    HW1 4394   1.337   4.469   1.919
 1525SOL    HW2 4395   1.321   4.589   1.809
 1526SOL     OW 4396   0.319   4.534   2.811
 1526SOL    HW1 4397   0.412   4.570   2.816
 1526SOL    HW2 4398   0.313   4.449   2.863
 1527SOL     OW 4399   0.339   4.233   2.868
 1527SOL    HW1 4400   0.287   4.150   2.851
 1527SOL    HW2 4401   0.416   4.238   2.804
 1528SOL     OW 4402   1.138   4.104   3.540
 1528SOL    HW1 4403   1.093   4.167   3.604
 1528SOL    HW2 4404   1.231   4.135   3.523
 1529SOL     OW 4405   1.160   3.931   3.339
 1529SOL    HW1 4406   1.160   3.995   3.416
 1529SOL    HW2 4407   1.188   3.979   3.256
 1530SOL     OW 4408   0.008   5.050   2.062
 1530SOL    HW1 4409  -0.085   5.071   2.031
 1530SOL    HW2 4410   0.018   4.951   2.075
 1531SOL     OW 4411   1.002   4.520   3.100
 1531SOL    HW1 4412   1.043   4.488   3.186
 1531SOL    HW2 4413   0.906   4.493   3.097
 1532SOL     OW 4414   0.040   4.268   2.976
 1532SOL    HW1 4415   0.125   4.235   2.935
 1532SOL    HW2 4416   0.053   4.283   3.074
 1533SOL     OW 4417   0.189   4.244   3.584
 1533SOL    HW1 4418   0.248   4.204   3.514
 1533SOL    HW2 4419   0.131   4.315   3.543
 1534SOL     OW 4420   1.369   4.674   3.522
 1534SOL    HW1 4421   1.408   4.763   3.542
 1534SOL    HW2 4422   1.379   4.654   3.425
 1535SOL     OW 4423   0.815   4.296   2.187
 1535SOL    HW1 4424   0.822   4.207   2.141
 1535SOL    HW2 4425   0.721   4.330   2.179
 1536SOL     OW 4426   1.657   4.328   3.068
 1536SOL    HW1 4427   1.619   4.259   3.130
 1536SOL    HW2 4428   1.739   4.292   3.024
 1537SOL     OW 4429   0.671   4.188   3.131
 1537SOL    HW1 4430   0.637   4.099   3.101
 1537SOL    HW2 4431   0.697   4.242   3.051
 1538SOL     OW 4432   0.473   4.224   2.053
 1538SOL    HW1 4433   0.534   4.304   2.057
 1538SOL    HW2 4434   0.378   4.255   2.060
 1539SOL     OW 4435   0.159   4.861   3.328
 1539SOL    HW1 4436   0.181   4.800   3.404
 1539SOL    HW2 4437   0.169   4.812   3.242
 1540SOL     OW 4438   1.347   4.783   3.096
 1540SOL    HW1 4439   1.371   4.720   3.022
 1540SOL    HW2 4440   1.257   4.823   3.078
 1541SOL     OW 4441   1.302   4.579   2.171
 1541SOL    HW1 4442   1.216   4.548   2.213
 1541SOL    HW2 4443   1.298   4.565   2.072
 1542SOL     OW 4444   0.083   4.982   2.884
 1542SOL    HW1 4445   0.078   4.981   2.984
 1542SOL    HW2 4446   0.000   4.941   2.846
 1543SOL     OW 4447   1.726   3.859   2.385
 1543SOL    HW1 4448   1.799   3.842   2.318
 1543SOL    HW2 4449   1.695   3.772   2.423
 1544SOL     OW 4450   1.280   4.651   2.534
 1544SOL    HW1 4451   1.340   4.570   2.536
 1544SOL    HW2 4452   1.320   4.720   2.474
 1545SOL     OW 4453   0.830   4.997   3.284
 1545SOL    HW1 4454   0.825   5.030   3.379
 1545SOL    HW2 4455   0.744   5.016   3.238
 1546SOL     OW 4456   1.841   3.899   2.825
 1546SOL    HW1 4457   1.880   3.814   2.789
 1546SOL    HW2 4458   1.743   3.901   2.806
 1547SOL     OW 4459   0.263   4.050   2.582
 1547SOL    HW1 4460   0.184   4.101   2.548
 1547SOL    HW2 4461   0.254   4.035   2.680
 1548SOL     OW 4462   1.194   5.336   1.893
 1548SOL    HW1 4463   1.200   5.243   1.930
 1548SOL    HW2 4464   1.135   5.336   1.813
 1549SOL     OW 4465   0.822   4.726   3.234
 1549SOL    HW1 4466   0.862   4.725   3.142
 1549SOL    HW2 4467   0.832   4.818   3.274
 1550SOL     OW 4468   0.916   4.634   2.153
 1550SOL    HW1 4469   0.979   4.672   2.085
 1550SOL    HW2 4470   0.956   4.551   2.192
 1551SOL     OW 4471   0.372   5.012   3.352
 1551SOL    HW1 4472   0.359   5.105   3.318
 1551SOL    HW2 4473   0.288   4.960   3.339
 1552SOL     OW 4474   1.614   5.016   3.151
 1552SOL    HW1 4475   1.674   5.019   3.231
 1552SOL    HW2 4476   1.539   5.080   3.164
 1553SOL     OW 4477   1.039   4.822   2.558
 1553SOL    HW1 4478   0.969   4.775   2.612
 1553SOL    HW2 4479   1.098   4.754   2.515
 1554SOL     OW 4480   1.014   3.960   2.833
 1554SOL    HW1 4481   1.006   3.924   2.740
 1554SOL    HW2 4482   1.012   3.884   2.898
 1555SOL     OW 4483   1.709   4.109   3.243
 1555SOL    HW1 4484   1.782   4.178   3.247
 1555SOL    HW2 4485   1.737   4.034   3.184
 1556SOL     OW 4486   0.105   4.737   3.588
 1556SOL    HW1 4487   0.028   4.704   3.642
 1556SOL    HW2 4488   0.190   4.707   3.630
 1557SOL     OW 4489   0.672   3.927   3.351
 1557SOL    HW1 4490   0.762   3.911   3.311
 1557SOL    HW2 4491   0.680   3.932   3.450
 1558SOL     OW 4492   0.075   4.069   1.895
 1558SOL    HW1 4493  -0.017   4.041   1.866
 1558SOL    HW2 4494   0.106   4.146   1.839
 1559SOL     OW 4495   1.440   4.580   3.260
 1559SOL    HW1 4496   1.383   4.632   3.197
 1559SOL    HW2 4497   1.536   4.592   3.236
 1560SOL     OW 4498   0.072   3.890   2.180
 1560SOL    HW1 4499   0.055   3.973   2.126
 1560SOL    HW2 4500   0.162   3.853   2.158
 1561SOL     OW 4501   0.613   4.566   3.293
 1561SOL    HW1 4502   0.669   4.647   3.276
 1561SOL    HW2 4503   0.672   4.486   3.296
 1562SOL     OW 4504   0.716   4.289   3.570
 1562SOL    HW1 4505   0.735   4.354   3.644
 1562SOL    HW2 4506   0.776   4.209   3.579
 1563SOL     OW 4507   1.450   4.944   3.495
 1563SOL    HW1 4508   1.441   4.934   3.594
 1563SOL    HW2 4509   1.546   4.937   3.469
 1564SOL     OW 4510   1.674   4.607   3.116
 1564SOL    HW1 4511   1.647   4.518   3.079
 1564SOL    HW2 4512   1.675   4.675   3.043
 1565SOL     OW 4513   1.225   4.049   2.311
 1565SOL    HW1 4514   1.290   3.975   2.300
 1565SOL    HW2 4515   1.245   4.099   2.395
 1566SOL     OW 4516   0.594   4.469   2.514
 1566SOL    HW1 4517   0.644   4.554   2.495
 1566SOL    HW2 4518   0.506   4.471   2.466
 1567SOL     OW 4519   1.777   4.066   3.504
 1567SOL    HW1 4520   1.760   4.097   3.410
 1567SOL    HW2 4521   1.693   4.029   3.542
 1568SOL     OW 4522   1.730   4.658   3.379
 1568SOL    HW1 4523   1.768   4.749   3.394
 1568SOL    HW2 4524   1.722   4.641   3.280
 1569SOL     OW 4525   0.859   4.680   2.723
 1569SOL    HW1 4526   0.913   4.611   2.771
 1569SOL    HW2 4527   0.827   4.749   2.789
 1570SOL     OW 4528   1.083   4.708   1.949
 1570SOL    HW1 4529   1.060   4.761   1.867
 1570SOL    HW2 4530   1.164   4.652   1.930
 1571SOL     OW 4531   0.079   4.964   2.515
 1571SOL    HW1 4532   0.078   4.917   2.603
 1571SOL    HW2 4533   0.161   4.936   2.464
 1572SOL     OW 4534   1.824   3.916   3.089
 1572SOL    HW1 4535   1.820   3.826   3.133
 1572SOL    HW2 4536   1.827   3.905   2.990
 1573SOL     OW 4537   0.428   4.148   2.382
 1573SOL    HW1 4538   0.458   4.076   2.320
 1573SOL    HW2 4539   0.389   4.108   2.465
 1574SOL     OW 4540   0.317   4.271   3.142
 1574SOL    HW1 4541   0.355   4.212   3.214
 1574SOL    HW2 4542   0.357   4.245   3.054
 1575SOL     OW 4543   1.424   3.938   2.974
 1575SOL    HW1 4544   1.476   3.873   3.029
 1575SOL    HW2 4545   1.375   4.001   3.035
 1576SOL     OW 4546   1.001   3.758   3.016
 1576SOL    HW1 4547   0.938   3.686   2.985
 1576SOL    HW2 4548   1.094   3.722   3.016
 1577SOL     OW 4549   0.770   5.054   2.163
 1577SOL    HW1 4550   0.724   4.967   2.180
 1577SOL    HW2 4551   0.861   5.051   2.204
 1578SOL     OW 4552   1.352   3.776   2.030
 1578SOL    HW1 4553   1.387   3.735   1.946
 1578SOL    HW2 4554   1.262   3.738   2.050
 1579SOL     OW 4555   1.300   4.177   2.553
 1579SOL    HW1 4556   1.241   4.257   2.557
 1579SOL    HW2 4557   1.315   4.142   2.646
 1580SOL     OW 4558   1.593   3.945   2.744
 1580SOL    HW1 4559   1.509   3.944   2.798
 1580SOL    HW2 4560   1.595   4.028   2.688
 1581SOL     OW 4561   0.039   4.801   2.162
 1581SOL    HW1 4562   0.138   4.790   2.153
 1581SOL    HW2 4563  -0.001   4.715   2.194
 1582SOL     OW 4564   0.230   4.352   3.837
 1582SOL    HW1 4565   0.137   4.350   3.874
 1582SOL    HW2 4566   0.231   4.313   3.745
 1583SOL     OW 4567   0.225   3.999   4.720
 1583SOL    HW1 4568   0.260   3.982   4.812
 1583SOL    HW2 4569   0.137   3.954   4.708
 1584SOL     OW 4570   0.019   4.092   4.371
 1584SOL    HW1 4571  -0.063   4.135   4.410
 1584SOL    HW2 4572  -0.009   4.019   4.308
 1585SOL     OW 4573   0.569   4.999   4.889
 1585SOL    HW1 4574   0.476   4.992   4.852
 1585SOL    HW2 4575   0.580   5.088   4.933
 1586SOL     OW 4576   1.555   5.235   4.427
 1586SOL    HW1 4577   1.498   5.219   4.508
 1586SOL    HW2 4578   1.496   5.245   4.347
 1587SOL     OW 4579   1.135   4.427   4.441
 1587SOL    HW1 4580   1.192   4.505   4.416
 1587SOL    HW2 4581   1.075   4.453   4.517
 1588SOL     OW 4582   1.755   4.331   3.955
 1588SOL    HW1 4583   1.743   4.318   3.856
 1588SOL    HW2 4584   1.725   4.250   4.004
 1589SOL     OW 4585   0.768   4.868   4.747
 1589SOL    HW1 4586   0.690   4.885   4.807
 1589SOL    HW2 4587   0.802   4.955   4.711
 1590SOL     OW 4588   0.685   4.736   4.389
 1590SOL    HW1 4589   0.754   4.720   4.459
 1590SOL    HW2 4590   0.612   4.793   4.427
 1591SOL     OW 4591   0.335   5.159   4.785
 1591SOL    HW1 4592   0.257   5.128   4.732
 1591SOL    HW2 4593   0.393   5.217   4.728
 1592SOL     OW 4594   1.603   4.171   4.461
 1592SOL    HW1 4595   1.529   4.217   4.411
 1592SOL    HW2 4596   1.654   4.239   4.514
 1593SOL     OW 4597   0.240   4.815   4.610
 1593SOL    HW1 4598   0.254   4.731   4.662
 1593SOL    HW2 4599   0.185   4.879   4.665
 1594SOL     OW 4600   0.606   4.688   3.847
 1594SOL    HW1 4601   0.613   4.772   3.793
 1594SOL    HW2 4602   0.652   4.701   3.935
 1595SOL     OW 4603   0.122   4.367   4.287
 1595SOL    HW1 4604   0.077   4.279   4.304
 1595SOL    HW2 4605   0.121   4.421   4.371
 1596SOL     OW 4606   1.689   4.646   4.336
 1596SOL    HW1 4607   1.784   4.617   4.344
 1596SOL    HW2 4608   1.681   4.711   4.261
 1597SOL     OW 4609   1.641   4.832   4.156
 1597SOL    HW1 4610   1.727   4.834   4.104
 1597SOL    HW2 4611   1.655   4.879   4.244
 1598SOL     OW 4612   0.809   3.728   4.226
 1598SOL    HW1 4613   0.849   3.819   4.217
 1598SOL    HW2 4614   0.709   3.736   4.232
 1599SOL     OW 4615   0.197   4.700   4.988
 1599SOL    HW1 4616   0.286   4.655   4.974
 1599SOL    HW2 4617   0.124   4.635   4.969
 1600SOL     OW 4618   1.525   4.723   3.914
 1600SOL    HW1 4619   1.462   4.647   3.927
 1600SOL    HW2 4620   1.573   4.741   4.000
 1601SOL     OW 4621   1.466   5.141   4.677
 1601SOL    HW1 4622   1.407   5.147   4.757
 1601SOL    HW2 4623   1.451   5.053   4.631
 1602SOL     OW 4624   0.598   4.453   3.994
 1602SOL    HW1 4625   0.622   4.522   3.926
 1602SOL    HW2 4626   0.520   4.486   4.048
 1603SOL     OW 4627   1.281   4.069   4.668
 1603SOL    HW1 4628   1.195   4.019   4.655
 1603SOL    HW2 4629   1.343   4.015   4.724
 1604SOL     OW 4630   0.991   4.134   4.966
 1604SOL    HW1 4631   0.914   4.168   5.020
 1604SOL    HW2 4632   0.957   4.083   4.887
 1605SOL     OW 4633   1.041   4.425   4.153
 1605SOL    HW1 4634   1.067   4.421   4.249
 1605SOL    HW2 4635   0.956   4.374   4.139
 1606SOL     OW 4636   0.076   4.535   4.513
 1606SOL    HW1 4637   0.175   4.523   4.522
 1606SOL    HW2 4638   0.052   4.630   4.534
 1607SOL     OW 4639   0.865   4.072   3.919
 1607SOL    HW1 4640   0.924   4.135   3.870
 1607SOL    HW2 4641   0.884   3.978   3.890
 1608SOL     OW 4642   1.362   4.868   4.269
 1608SOL    HW1 4643   1.445   4.839   4.221
 1608SOL    HW2 4644   1.313   4.935   4.213
 1609SOL     OW 4645   0.550   3.920   4.609
 1609SOL    HW1 4646   0.545   3.915   4.709
 1609SOL    HW2 4647   0.552   4.016   4.580
 1610SOL     OW 4648   1.795   4.790   4.597
 1610SOL    HW1 4649   1.733   4.775   4.521
 1610SOL    HW2 4650   1.743   4.801   4.682
 1611SOL     OW 4651   0.321   4.667   3.966
 1611SOL    HW1 4652   0.403   4.706   3.924
 1611SOL    HW2 4653   0.294   4.585   3.917
 1612SOL     OW 4654   1.458   4.459   4.452
 1612SOL    HW1 4655   1.453   4.394   4.527
 1612SOL    HW2 4656   1.538   4.518   4.465
 1613SOL     OW 4657   1.632   5.101   3.805
 1613SOL    HW1 4658   1.600   5.195   3.795
 1613SOL    HW2 4659   1.556   5.038   3.793
 1614SOL     OW 4660   1.400   3.831   4.150
 1614SOL    HW1 4661   1.376   3.794   4.060
 1614SOL    HW2 4662   1.499   3.847   4.154
 1615SOL     OW 4663   0.382   4.424   4.204
 1615SOL    HW1 4664   0.427   4.334   4.201
 1615SOL    HW2 4665   0.288   4.413   4.237
 1616SOL     OW 4666   0.614   3.846   3.841
 1616SOL    HW1 4667   0.712   3.824   3.848
 1616SOL    HW2 4668   0.583   3.829   3.748
 1617SOL     OW 4669   0.803   5.126   4.648
 1617SOL    HW1 4670   0.893   5.140   4.606
 1617SOL    HW2 4671   0.732   5.128   4.577
 1618SOL     OW 4672   0.922   4.227   4.623
 1618SOL    HW1 4673   0.897   4.218   4.527
 1618SOL    HW2 4674   0.970   4.145   4.654
 1619SOL     OW 4675   0.539   3.788   4.236
 1619SOL    HW1 4676   0.458   3.789   4.294
 1619SOL    HW2 4677   0.542   3.871   4.181
 1620SOL     OW 4678   1.434   4.912   3.765
 1620SOL    HW1 4679   1.466   4.836   3.822
 1620SOL    HW2 4680   1.342   4.939   3.795
 1621SOL     OW 4681   0.297   3.759   3.895
 1621SOL    HW1 4682   0.346   3.843   3.874
 1621SOL    HW2 4683   0.359   3.694   3.940
 1622SOL     OW 4684   0.935   3.960   4.204
 1622SOL    HW1 4685   0.887   4.001   4.126
 1622SOL    HW2 4686   1.034   3.958   4.185
 1623SOL     OW 4687   1.227   5.294   4.517
 1623SOL    HW1 4688   1.248   5.368   4.452
 1623SOL    HW2 4689   1.295   5.294   4.590
 1624SOL     OW 4690   0.459   4.876   4.465
 1624SOL    HW1 4691   0.388   4.849   4.530
 1624SOL    HW2 4692   0.433   4.848   4.372
 1625SOL     OW 4693   1.032   4.273   3.740
 1625SOL    HW1 4694   0.991   4.355   3.701
 1625SOL    HW2 4695   1.096   4.299   3.813
 1626SOL     OW 4696   0.561   3.946   4.871
 1626SOL    HW1 4697   0.599   3.862   4.908
 1626SOL    HW2 4698   0.473   3.965   4.915
 1627SOL     OW 4699   0.866   4.178   4.366
 1627SOL    HW1 4700   0.834   4.250   4.304
 1627SOL    HW2 4701   0.890   4.097   4.313
 1628SOL     OW 4702   1.017   3.763   4.477
 1628SOL    HW1 4703   0.945   3.768   4.408
 1628SOL    HW2 4704   0.993   3.694   4.546
 1629SOL     OW 4705   1.429   4.897   4.591
 1629SOL    HW1 4706   1.374   4.813   4.584
 1629SOL    HW2 4707   1.455   4.926   4.499
 1630SOL     OW 4708   1.466   4.314   4.716
 1630SOL    HW1 4709   1.436   4.219   4.723
 1630SOL    HW2 4710   1.539   4.330   4.782
 1631SOL     OW 4711   1.857   4.557   4.101
 1631SOL    HW1 4712   1.899   4.493   4.165
 1631SOL    HW2 4713   1.819   4.506   4.023
 1632SOL     OW 4714   1.664   5.004   4.381
 1632SOL    HW1 4715   1.763   5.012   4.395
 1632SOL    HW2 4716   1.619   5.088   4.412
 1633SOL     OW 4717   1.390   4.299   3.802
 1633SOL    HW1 4718   1.336   4.278   3.883
 1633SOL    HW2 4719   1.481   4.258   3.811
 1634SOL     OW 4720   0.527   3.980   4.052
 1634SOL    HW1 4721   0.554   3.921   3.977
 1634SOL    HW2 4722   0.527   4.075   4.021
 1635SOL     OW 4723   1.638   4.823   4.803
 1635SOL    HW1 4724   1.643   4.904   4.862
 1635SOL    HW2 4725   1.552   4.825   4.752
 1636SOL     OW 4726   0.705   4.774   4.092
 1636SOL    HW1 4727   0.691   4.781   4.191
 1636SOL    HW2 4728   0.789   4.723   4.074
 1637SOL     OW 4729   0.410   4.537   4.975
 1637SOL    HW1 4730   0.496   4.549   5.025
 1637SOL    HW2 4731   0.368   4.450   5.002
 1638SOL     OW 4732   1.274   4.110   4.986
 1638SOL    HW1 4733   1.295   4.184   5.050
 1638SOL    HW2 4734   1.185   4.127   4.943
 1639SOL     OW 4735   0.367   4.824   4.225
 1639SOL    HW1 4736   0.360   4.907   4.169
 1639SOL    HW2 4737   0.371   4.744   4.165
 1640SOL     OW 4738   0.566   4.261   4.589
 1640SOL    HW1 4739   0.578   4.327   4.515
 1640SOL    HW2 4740   0.612   4.295   4.672
 1641SOL     OW 4741   1.582   4.363   4.196
 1641SOL    HW1 4742   1.551   4.424   4.269
 1641SOL    HW2 4743   1.632   4.415   4.127
 1642SOL     OW 4744   0.573   4.594   4.753
 1642SOL    HW1 4745   0.617   4.683   4.744
 1642SOL    HW2 4746   0.510   4.594   4.830
 1643SOL     OW 4747   1.360   4.586   4.769
 1643SOL    HW1 4748   1.285   4.586   4.703
 1643SOL    HW2 4749   1.397   4.494   4.778
 1644SOL     OW 4750   1.209   4.249   3.999
 1644SOL    HW1 4751   1.222   4.165   4.053
 1644SOL    HW2 4752   1.180   4.323   4.059
 1645SOL     OW 4753   0.307   3.937   4.955
 1645SOL    HW1 4754   0.284   3.974   5.045
 1645SOL    HW2 4755   0.277   3.842   4.949
 1646SOL     OW 4756   0.037   5.034   5.006
 1646SOL    HW1 4757   0.090   4.985   5.074
 1646SOL    HW2 4758   0.059   5.132   5.011
 1647SOL     OW 4759   0.732   4.358   4.788
 1647SOL    HW1 4760   0.791   4.332   4.712
 1647SOL    HW2 4761   0.704   4.454   4.777
 1648SOL     OW 4762   0.307   3.787   4.342
 1648SOL    HW1 4763   0.296   3.881   4.375
 1648SOL    HW2 4764   0.302   3.724   4.419
 1649SOL     OW 4765   1.622   4.091   4.098
 1649SOL    HW1 4766   1.624   4.015   4.162
 1649SOL    HW2 4767   1.574   4.168   4.138
 1650SOL     OW 4768   1.023   4.490   4.690
 1650SOL    HW1 4769   1.038   4.511   4.786
 1650SOL    HW2 4770   0.993   4.395   4.681
 1651SOL     OW 4771   1.540   3.998   3.849
 1651SOL    HW1 4772   1.479   3.923   3.872
 1651SOL    HW2 4773   1.562   4.050   3.932
 1652SOL     OW 4774   1.303   4.562   3.766
 1652SOL    HW1 4775   1.337   4.469   3.781
 1652SOL    HW2 4776   1.321   4.589   3.671
 1653SOL     OW 4777   0.319   4.534   4.673
 1653SOL    HW1 4778   0.412   4.570   4.678
 1653SOL    HW2 4779   0.313   4.449   4.725
 1654SOL     OW 4780   0.339   4.233   4.730
 1654SOL    HW1 4781   0.287   4.150   4.713
 1654SOL    HW2 4782   0.416   4.238   4.666
 1655SOL     OW 4783   1.160   3.931   5.201
 1655SOL    HW1 4784   1.160   3.995   5.278
 1655SOL    HW2 4785   1.188   3.979   5.118
 1656SOL     OW 4786   0.008   5.050   3.924
 1656SOL    HW1 4787  -0.085   5.071   3.893
 1656SOL    HW2 4788   0.018   4.951   3.937
 1657SOL     OW 4789   1.002   4.520   4.962
 1657SOL    HW1 4790   1.043   4.488   5.048
 1657SOL    HW2 4791   0.906   4.493   4.959
 1658SOL     OW 4792   0.040   4.268   4.838
 1658SOL    HW1 4793   0.125   4.235   4.797
 1658SOL    HW2 4794   0.053   4.283   4.936
 1659SOL     OW 4795   0.815   4.296   4.049
 1659SOL    HW1 4796   0.822   4.207   4.003
 1659SOL    HW2 4797   0.721   4.330   4.041
 1660SOL     OW 4798   1.657   4.328   4.930
 1660SOL    HW1 4799   1.619   4.259   4.992
 1660SOL    HW2 4800   1.739   4.292   4.886
 1661SOL     OW 4801   0.671   4.188   4.993
 1661SOL    HW1 4802   0.637   4.099   4.963
 1661SOL    HW2 4803   0.697   4.242   4.913
 1662SOL     OW 4804   0.473   4.224   3.915
 1662SOL    HW1 4805   0.534   4.304   3.919
 1662SOL    HW2 4806   0.378   4.255   3.922
 1663SOL     OW 4807   1.347   4.783   4.958
 1663SOL    HW1 4808   1.371   4.720   4.884
 1663SOL    HW2 4809   1.257   4.823   4.940
 1664SOL     OW 4810   1.302   4.579   4.033
 1664SOL    HW1 4811   1.216   4.548   4.075
 1664SOL    HW2 4812   1.298   4.565   3.934
 1665SOL     OW 4813   0.083   4.982   4.746
 1665SOL    HW1 4814   0.078   4.981   4.846
 1665SOL    HW2 4815   0.000   4.941   4.708
 1666SOL     OW 4816   1.726   3.859   4.247
 1666SOL    HW1 4817   1.799   3.842   4.180
 1666SOL    HW2 4818   1.695   3.772   4.285
 1667SOL     OW 4819   1.280   4.651   4.396
 1667SOL    HW1 4820   1.340   4.570   4.398
 1667SOL    HW2 4821   1.320   4.720   4.336
 1668SOL     OW 4822   0.830   4.997   5.146
 1668SOL    HW1 4823   0.825   5.030   5.241
 1668SOL    HW2 4824   0.744   5.016   5.100
 1669SOL     OW 4825   1.841   3.899   4.687
 1669SOL    HW1 4826   1.880   3.814   4.651
 1669SOL    HW2 4827   1.743   3.901   4.668
 1670SOL     OW 4828   0.263   4.050   4.444
 1670SOL    HW1 4829   0.184   4.101   4.410
 1670SOL    HW2 4830   0.254   4.035   4.542
 1671SOL     OW 4831   1.194   5.336   3.755
 1671SOL    HW1 4832   1.200   5.243   3.792
 1671SOL    HW2 4833   1.135   5.336   3.675
 1672SOL     OW 4834   0.822   4.726   5.096
 1672SOL    HW1 4835   0.862   4.725   5.004
 1672SOL    HW2 4836   0.832   4.818   5.136
 1673SOL     OW 4837   0.916   4.634   4.015
 1673SOL    HW1 4838   0.979   4.672   3.947
 1673SOL    HW2 4839   0.956   4.551   4.054
 1674SOL     OW 4840   1.039   4.822   4.420
 1674SOL    HW1 4841   0.969   4.775   4.474
 1674SOL    HW2 4842   1.098   4.754   4.377
 1675SOL     OW 4843   1.014   3.960   4.695
 1675SOL    HW1 4844   1.006   3.924   4.602
 1675SOL    HW2 4845   1.012   3.884   4.760
 1676SOL     OW 4846   1.709   4.109   5.105
 1676SOL    HW1 4847   1.782   4.178   5.109
 1676SOL    HW2 4848   1.737   4.034   5.046
 1677SOL     OW 4849   0.075   4.069   3.757
 1677SOL    HW1 4850  -0.017   4.041   3.728
 1677SOL    HW2 4851   0.106   4.146   3.701
 1678SOL     OW 4852   0.072   3.890   4.042
 1678SOL    HW1 4853   0.055   3.973   3.988
 1678SOL    HW2 4854   0.162   3.853   4.020
 1679SOL     OW 4855   1.450   4.944   5.357
 1679SOL    HW1 4856   1.441   4.934   5.456
 1679SOL    HW2 4857   1.546   4.937   5.331
 1680SOL     OW 4858   1.674   4.607   4.978
 1680SOL    HW1 4859   1.647   4.518   4.941
 1680SOL    HW2 4860   1.675   4.675   4.905
 1681SOL     OW 4861   1.225   4.049   4.173
 1681SOL    HW1 4862   1.290   3.975   4.162
 1681SOL    HW2 4863   1.245   4.099   4.257
 1682SOL     OW 4864   0.594   4.469   4.376
 1682SOL    HW1 4865   0.644   4.554   4.357
 1682SOL    HW2 4866   0.506   4.471   4.328
 1683SOL     OW 4867   1.730   4.658   5.241
 1683SOL    HW1 4868   1.768   4.749   5.256
 1683SOL    HW2 4869   1.722   4.641   5.142
 1684SOL     OW 4870   0.859   4.680   4.585
 1684SOL    HW1 4871   0.913   4.611   4.633
 1684SOL    HW2 4872   0.827   4.749   4.651
 1685SOL     OW 4873   1.083   4.708   3.811
 1685SOL    HW1 4874   1.060   4.761   3.729
 1685SOL    HW2 4875   1.164   4.652   3.792
 1686SOL     OW 4876   0.079   4.964   4.377
 1686SOL    HW1 4877   0.078   4.917   4.465
 1686SOL    HW2 4878   0.161   4.936   4.326
 1687SOL     OW 4879   1.824   3.916   4.951
 1687SOL    HW1 4880   1.820   3.826   4.995
 1687SOL    HW2 4881   1.827   3.905   4.852
 1688SOL     OW 4882   0.428   4.148   4.244
 1688SOL    HW1 4883   0.458   4.076   4.182
 1688SOL    HW2 4884   0.389   4.108   4.327
 1689SOL     OW 4885   1.424   3.938   4.836
 1689SOL    HW1 4886   1.476   3.873   4.891
 1689SOL    HW2 4887   1.375   4.001   4.897
 1690SOL     OW 4888   1.001   3.758   4.878
 1690SOL    HW1 4889   0.938   3.686   4.847
 1690SOL    HW2 4890   1.094   3.722   4.878
 1691SOL     OW 4891   0.770   5.054   4.025
 1691SOL    HW1 4892   0.724   4.967   4.042
 1691SOL    HW2 4893   0.861   5.051   4.066
 1692SOL     OW 4894   1.352   3.776   3.892
 1692SOL    HW1 4895   1.387   3.735   3.808
 1692SOL    HW2 4896   1.262   3.738   3.912
 1693SOL     OW 4897   1.300   4.177   4.415
 1693SOL    HW1 4898   1.241   4.257   4.419
 1693SOL    HW2 4899   1.315   4.142   4.508
 1694SOL     OW 4900   1.593   3.945   4.606
 1694SOL    HW1 4901   1.509   3.944   4.660
 1694SOL    HW2 4902   1.595   4.028   4.550
 1695SOL     OW 4903   0.039   4.801   4.024
 1695SOL    HW1 4904   0.138   4.790   4.015
 1695SOL    HW2 4905  -0.001   4.715   4.056
 1696SOL     OW 4906   2.092   0.628   0.113
 1696SOL    HW1 4907   1.999   0.626   0.150
 1696SOL    HW2 4908   2.093   0.589   0.021
 1697SOL     OW 4909   2.087   0.275   0.996
 1697SOL    HW1 4910   2.122   0.258   1.088
 1697SOL    HW2 4911   1.999   0.230   0.984
 1698SOL     OW 4912   1.881   0.368   0.647
 1698SOL    HW1 4913   1.799   0.411   0.686
 1698SOL    HW2 4914   1.853   0.295   0.584
 1699SOL     OW 4915   2.431   1.275   1.165
 1699SOL    HW1 4916   2.338   1.268   1.128
 1699SOL    HW2 4917   2.442   1.364   1.209
 1700SOL     OW 4918   3.417   1.511   0.703
 1700SOL    HW1 4919   3.360   1.495   0.784
 1700SOL    HW2 4920   3.358   1.521   0.623
 1701SOL     OW 4921   2.997   0.703   0.717
 1701SOL    HW1 4922   3.054   0.781   0.692
 1701SOL    HW2 4923   2.937   0.729   0.793
 1702SOL     OW 4924   3.617   0.607   0.231
 1702SOL    HW1 4925   3.605   0.594   0.132
 1702SOL    HW2 4926   3.587   0.526   0.280
 1703SOL     OW 4927   2.630   1.144   1.023
 1703SOL    HW1 4928   2.552   1.161   1.083
 1703SOL    HW2 4929   2.664   1.231   0.987
 1704SOL     OW 4930   2.712   0.798   1.823
 1704SOL    HW1 4931   2.708   0.874   1.888
 1704SOL    HW2 4932   2.734   0.834   1.732
 1705SOL     OW 4933   2.547   1.012   0.665
 1705SOL    HW1 4934   2.616   0.996   0.735
 1705SOL    HW2 4935   2.474   1.069   0.703
 1706SOL     OW 4936   2.548   1.161   1.803
 1706SOL    HW1 4937   2.608   1.240   1.817
 1706SOL    HW2 4938   2.462   1.192   1.762
 1707SOL     OW 4939   2.197   1.435   1.061
 1707SOL    HW1 4940   2.119   1.404   1.008
 1707SOL    HW2 4941   2.255   1.493   1.004
 1708SOL     OW 4942   3.322   1.505   1.339
 1708SOL    HW1 4943   3.346   1.599   1.365
 1708SOL    HW2 4944   3.306   1.451   1.421
 1709SOL     OW 4945   2.300   0.392   1.499
 1709SOL    HW1 4946   2.382   0.336   1.508
 1709SOL    HW2 4947   2.219   0.334   1.503
 1710SOL     OW 4948   3.465   0.447   0.737
 1710SOL    HW1 4949   3.391   0.493   0.687
 1710SOL    HW2 4950   3.516   0.515   0.790
 1711SOL     OW 4951   2.093   1.713   0.483
 1711SOL    HW1 4952   2.127   1.790   0.537
 1711SOL    HW2 4953   2.137   1.713   0.393
 1712SOL     OW 4954   2.989   1.341   1.690
 1712SOL    HW1 4955   3.036   1.341   1.778
 1712SOL    HW2 4956   2.941   1.254   1.679
 1713SOL     OW 4957   2.092   1.434   0.538
 1713SOL    HW1 4958   2.066   1.530   0.538
 1713SOL    HW2 4959   2.021   1.380   0.583
 1714SOL     OW 4960   2.102   1.091   0.886
 1714SOL    HW1 4961   2.116   1.007   0.938
 1714SOL    HW2 4962   2.047   1.155   0.941
 1715SOL     OW 4963   2.482   1.786   1.439
 1715SOL    HW1 4964   2.390   1.769   1.474
 1715SOL    HW2 4965   2.510   1.878   1.465
 1716SOL     OW 4966   2.468   0.964   0.123
 1716SOL    HW1 4967   2.475   1.048   0.069
 1716SOL    HW2 4968   2.514   0.977   0.211
 1717SOL     OW 4969   3.456   0.114   1.480
 1717SOL    HW1 4970   3.438   0.181   1.408
 1717SOL    HW2 4971   3.453   0.160   1.569
 1718SOL     OW 4972   1.984   0.643   0.563
 1718SOL    HW1 4973   1.939   0.555   0.580
 1718SOL    HW2 4974   1.983   0.697   0.647
 1719SOL     OW 4975   3.704   1.767   0.359
 1719SOL    HW1 4976   3.758   1.738   0.439
 1719SOL    HW2 4977   3.734   1.857   0.330
 1720SOL     OW 4978   1.889   1.596   0.117
 1720SOL    HW1 4979   1.870   1.500   0.138
 1720SOL    HW2 4980   1.856   1.654   0.192
 1721SOL     OW 4981   3.551   0.922   0.612
 1721SOL    HW1 4982   3.646   0.893   0.620
 1721SOL    HW2 4983   3.543   0.987   0.537
 1722SOL     OW 4984   3.503   1.108   0.432
 1722SOL    HW1 4985   3.589   1.110   0.380
 1722SOL    HW2 4986   3.517   1.155   0.520
 1723SOL     OW 4987   1.975   0.737   1.597
 1723SOL    HW1 4988   2.063   0.724   1.642
 1723SOL    HW2 4989   1.962   0.834   1.575
 1724SOL     OW 4990   2.475   1.365   0.726
 1724SOL    HW1 4991   2.426   1.278   0.735
 1724SOL    HW2 4992   2.452   1.408   0.639
 1725SOL     OW 4993   3.155   1.228   1.423
 1725SOL    HW1 4994   3.192   1.155   1.365
 1725SOL    HW2 4995   3.207   1.233   1.508
 1726SOL     OW 4996   2.671   0.004   0.502
 1726SOL    HW1 4997   2.711   0.095   0.493
 1726SOL    HW2 4998   2.571   0.012   0.508
 1727SOL     OW 4999   2.059   0.976   1.264
 1727SOL    HW1 5000   2.148   0.931   1.250
 1727SOL    HW2 5001   1.986   0.911   1.245
 1728SOL     OW 5002   3.387   0.999   0.190
 1728SOL    HW1 5003   3.324   0.923   0.203
 1728SOL    HW2 5004   3.435   1.017   0.276
 1729SOL     OW 5005   3.049   1.792   1.616
 1729SOL    HW1 5006   3.073   1.852   1.540
 1729SOL    HW2 5007   3.056   1.697   1.586
 1730SOL     OW 5008   2.179   0.251   1.801
 1730SOL    HW1 5009   2.250   0.322   1.807
 1730SOL    HW2 5010   2.091   0.290   1.829
 1731SOL     OW 5011   3.328   1.417   0.953
 1731SOL    HW1 5012   3.269   1.423   1.033
 1731SOL    HW2 5013   3.313   1.329   0.907
 1732SOL     OW 5014   3.529   1.714   0.572
 1732SOL    HW1 5015   3.488   1.691   0.484
 1732SOL    HW2 5016   3.511   1.640   0.637
 1733SOL     OW 5017   2.460   0.729   0.270
 1733SOL    HW1 5018   2.484   0.798   0.202
 1733SOL    HW2 5019   2.382   0.762   0.324
 1734SOL     OW 5020   3.143   0.345   0.944
 1734SOL    HW1 5021   3.057   0.295   0.931
 1734SOL    HW2 5022   3.205   0.291   1.000
 1735SOL     OW 5023   3.438   1.662   0.307
 1735SOL    HW1 5024   3.527   1.708   0.310
 1735SOL    HW2 5025   3.417   1.638   0.212
 1736SOL     OW 5026   2.669   0.605   1.465
 1736SOL    HW1 5027   2.622   0.602   1.554
 1736SOL    HW2 5028   2.618   0.550   1.399
 1737SOL     OW 5029   3.256   0.469   1.674
 1737SOL    HW1 5030   3.236   0.512   1.762
 1737SOL    HW2 5031   3.334   0.407   1.683
 1738SOL     OW 5032   2.835   0.890   1.572
 1738SOL    HW1 5033   2.881   0.806   1.543
 1738SOL    HW2 5034   2.779   0.924   1.497
 1739SOL     OW 5035   2.853   0.410   1.242
 1739SOL    HW1 5036   2.776   0.444   1.296
 1739SOL    HW2 5037   2.819   0.359   1.163
 1740SOL     OW 5038   2.903   0.701   0.429
 1740SOL    HW1 5039   2.929   0.697   0.525
 1740SOL    HW2 5040   2.818   0.650   0.415
 1741SOL     OW 5041   1.938   0.811   0.789
 1741SOL    HW1 5042   2.037   0.799   0.798
 1741SOL    HW2 5043   1.914   0.906   0.810
 1742SOL     OW 5044   1.992   1.821   1.571
 1742SOL    HW1 5045   1.982   1.806   1.670
 1742SOL    HW2 5046   1.906   1.857   1.535
 1743SOL     OW 5047   2.727   0.348   0.195
 1743SOL    HW1 5048   2.786   0.411   0.146
 1743SOL    HW2 5049   2.746   0.254   0.166
 1744SOL     OW 5050   3.581   0.585   1.831
 1744SOL    HW1 5051   3.555   0.674   1.795
 1744SOL    HW2 5052   3.579   0.517   1.758
 1745SOL     OW 5053   3.224   1.144   0.545
 1745SOL    HW1 5054   3.307   1.115   0.497
 1745SOL    HW2 5055   3.175   1.211   0.489
 1746SOL     OW 5056   2.412   0.196   0.885
 1746SOL    HW1 5057   2.407   0.191   0.985
 1746SOL    HW2 5058   2.414   0.292   0.856
 1747SOL     OW 5059   2.870   1.456   0.477
 1747SOL    HW1 5060   2.824   1.528   0.425
 1747SOL    HW2 5061   2.866   1.476   0.575
 1748SOL     OW 5062   2.213   1.801   0.853
 1748SOL    HW1 5063   2.263   1.715   0.859
 1748SOL    HW2 5064   2.278   1.878   0.850
 1749SOL     OW 5065   3.657   1.066   0.873
 1749SOL    HW1 5066   3.595   1.051   0.797
 1749SOL    HW2 5067   3.605   1.077   0.958
 1750SOL     OW 5068   3.089   1.550   1.506
 1750SOL    HW1 5069   3.095   1.473   1.570
 1750SOL    HW2 5070   3.037   1.524   1.426
 1751SOL     OW 5071   2.183   0.943   0.242
 1751SOL    HW1 5072   2.265   0.982   0.200
 1751SOL    HW2 5073   2.156   0.861   0.193
 1752SOL     OW 5074   3.320   0.735   0.728
 1752SOL    HW1 5075   3.315   0.670   0.803
 1752SOL    HW2 5076   3.400   0.794   0.741
 1753SOL     OW 5077   2.323   1.266   1.727
 1753SOL    HW1 5078   2.273   1.267   1.641
 1753SOL    HW2 5079   2.260   1.248   1.803
 1754SOL     OW 5080   2.973   1.776   0.237
 1754SOL    HW1 5081   2.913   1.714   0.287
 1754SOL    HW2 5082   3.004   1.732   0.152
 1755SOL     OW 5083   2.064   0.285   1.498
 1755SOL    HW1 5084   1.984   0.345   1.485
 1755SOL    HW2 5085   2.054   0.236   1.584
 1756SOL     OW 5086   3.494   1.377   0.081
 1756SOL    HW1 5087   3.462   1.471   0.071
 1756SOL    HW2 5088   3.418   1.314   0.069
 1757SOL     OW 5089   2.326   1.743   0.323
 1757SOL    HW1 5090   2.359   1.782   0.409
 1757SOL    HW2 5091   2.402   1.736   0.258
 1758SOL     OW 5092   3.262   0.107   0.426
 1758SOL    HW1 5093   3.238   0.070   0.336
 1758SOL    HW2 5094   3.361   0.123   0.430
 1759SOL     OW 5095   2.111   1.785   1.241
 1759SOL    HW1 5096   2.168   1.720   1.291
 1759SOL    HW2 5097   2.095   1.752   1.148
 1760SOL     OW 5098   2.802   1.698   0.904
 1760SOL    HW1 5099   2.882   1.641   0.925
 1760SOL    HW2 5100   2.753   1.658   0.827
 1761SOL     OW 5101   2.244   0.700   0.480
 1761SOL    HW1 5102   2.289   0.610   0.477
 1761SOL    HW2 5103   2.150   0.689   0.513
 1762SOL     OW 5104   3.409   0.222   1.729
 1762SOL    HW1 5105   3.404   0.259   1.821
 1762SOL    HW2 5106   3.337   0.153   1.717
 1763SOL     OW 5107   2.476   0.122   0.117
 1763SOL    HW1 5108   2.574   0.100   0.124
 1763SOL    HW2 5109   2.445   0.105   0.024
 1764SOL     OW 5110   2.643   0.264   1.749
 1764SOL    HW1 5111   2.710   0.203   1.792
 1764SOL    HW2 5112   2.570   0.283   1.814
 1765SOL     OW 5113   2.750   1.514   1.195
 1765SOL    HW1 5114   2.727   1.489   1.101
 1765SOL    HW2 5115   2.811   1.445   1.234
 1766SOL     OW 5116   3.213   0.590   1.433
 1766SOL    HW1 5117   3.241   0.547   1.518
 1766SOL    HW2 5118   3.238   0.686   1.434
 1767SOL     OW 5119   2.665   1.402   0.924
 1767SOL    HW1 5120   2.755   1.416   0.882
 1767SOL    HW2 5121   2.594   1.404   0.853
 1768SOL     OW 5122   2.784   0.503   0.899
 1768SOL    HW1 5123   2.759   0.494   0.803
 1768SOL    HW2 5124   2.832   0.421   0.930
 1769SOL     OW 5125   2.401   0.064   0.512
 1769SOL    HW1 5126   2.320   0.065   0.570
 1769SOL    HW2 5127   2.404   0.147   0.457
 1770SOL     OW 5128   3.296   1.188   0.041
 1770SOL    HW1 5129   3.328   1.112   0.098
 1770SOL    HW2 5130   3.204   1.215   0.071
 1771SOL     OW 5131   2.159   0.035   0.171
 1771SOL    HW1 5132   2.208   0.119   0.150
 1771SOL    HW2 5133   2.221  -0.030   0.216
 1772SOL     OW 5134   2.797   0.236   0.480
 1772SOL    HW1 5135   2.749   0.277   0.402
 1772SOL    HW2 5136   2.896   0.234   0.461
 1773SOL     OW 5137   2.938   0.683   1.464
 1773SOL    HW1 5138   2.858   0.622   1.467
 1773SOL    HW2 5139   3.019   0.630   1.440
 1774SOL     OW 5140   3.089   1.570   0.793
 1774SOL    HW1 5141   3.110   1.644   0.728
 1774SOL    HW2 5142   3.157   1.570   0.866
 1775SOL     OW 5143   2.321   1.152   0.741
 1775SOL    HW1 5144   2.250   1.125   0.806
 1775SOL    HW2 5145   2.295   1.124   0.648
 1776SOL     OW 5146   3.133   1.797   0.591
 1776SOL    HW1 5147   3.177   1.861   0.527
 1776SOL    HW2 5148   3.083   1.849   0.661
 1777SOL     OW 5149   2.894   0.549   0.016
 1777SOL    HW1 5150   2.853   0.631  -0.023
 1777SOL    HW2 5151   2.958   0.575   0.089
 1778SOL     OW 5152   1.940   0.556   1.386
 1778SOL    HW1 5153   2.032   0.555   1.345
 1778SOL    HW2 5154   1.934   0.630   1.453
 1779SOL     OW 5155   2.423   0.222   1.147
 1779SOL    HW1 5156   2.461   0.138   1.184
 1779SOL    HW2 5157   2.335   0.241   1.191
 1780SOL     OW 5158   2.728   0.454   0.642
 1780SOL    HW1 5159   2.696   0.526   0.580
 1780SOL    HW2 5160   2.752   0.373   0.589
 1781SOL     OW 5161   2.879   0.039   0.753
 1781SOL    HW1 5162   2.807   0.044   0.684
 1781SOL    HW2 5163   2.855  -0.030   0.822
 1782SOL     OW 5164   3.291   1.173   0.867
 1782SOL    HW1 5165   3.236   1.089   0.860
 1782SOL    HW2 5166   3.317   1.202   0.775
 1783SOL     OW 5167   3.328   0.590   0.992
 1783SOL    HW1 5168   3.298   0.495   0.999
 1783SOL    HW2 5169   3.401   0.606   1.058
 1784SOL     OW 5170   3.719   0.833   0.377
 1784SOL    HW1 5171   3.761   0.769   0.441
 1784SOL    HW2 5172   3.681   0.782   0.299
 1785SOL     OW 5173   2.350   1.385   0.174
 1785SOL    HW1 5174   2.263   1.370   0.221
 1785SOL    HW2 5175   2.333   1.411   0.079
 1786SOL     OW 5176   3.526   1.280   0.657
 1786SOL    HW1 5177   3.625   1.288   0.671
 1786SOL    HW2 5178   3.481   1.364   0.688
 1787SOL     OW 5179   3.252   0.575   0.078
 1787SOL    HW1 5180   3.198   0.554   0.159
 1787SOL    HW2 5181   3.343   0.534   0.087
 1788SOL     OW 5182   2.389   0.256   0.328
 1788SOL    HW1 5183   2.416   0.197   0.253
 1788SOL    HW2 5184   2.389   0.351   0.297
 1789SOL     OW 5185   3.616   1.223   1.588
 1789SOL    HW1 5186   3.707   1.184   1.575
 1789SOL    HW2 5187   3.624   1.319   1.612
 1790SOL     OW 5188   2.926   1.347   1.340
 1790SOL    HW1 5189   2.846   1.324   1.395
 1790SOL    HW2 5190   3.009   1.321   1.389
 1791SOL     OW 5191   3.454   1.629   1.625
 1791SOL    HW1 5192   3.481   1.663   1.535
 1791SOL    HW2 5193   3.533   1.591   1.671
 1792SOL     OW 5194   2.973   1.195   1.100
 1792SOL    HW1 5195   2.933   1.239   1.181
 1792SOL    HW2 5196   2.932   1.232   1.017
 1793SOL     OW 5197   3.500   1.099   1.079
 1793SOL    HW1 5198   3.505   1.180   1.138
 1793SOL    HW2 5199   3.414   1.101   1.028
 1794SOL     OW 5200   2.777   0.089   1.402
 1794SOL    HW1 5201   2.802   0.069   1.307
 1794SOL    HW2 5202   2.849   0.145   1.444
 1795SOL     OW 5203   2.842   1.116   1.719
 1795SOL    HW1 5204   2.743   1.122   1.729
 1795SOL    HW2 5205   2.865   1.036   1.663
 1796SOL     OW 5206   2.567   1.050   0.368
 1796SOL    HW1 5207   2.553   1.057   0.467
 1796SOL    HW2 5208   2.651   0.999   0.350
 1797SOL     OW 5209   2.272   0.813   1.251
 1797SOL    HW1 5210   2.358   0.825   1.301
 1797SOL    HW2 5211   2.230   0.726   1.278
 1798SOL     OW 5212   3.136   0.386   1.262
 1798SOL    HW1 5213   3.157   0.460   1.326
 1798SOL    HW2 5214   3.047   0.403   1.219
 1799SOL     OW 5215   1.926   1.564   1.331
 1799SOL    HW1 5216   1.880   1.646   1.297
 1799SOL    HW2 5217   2.024   1.583   1.340
 1800SOL     OW 5218   2.229   1.100   0.501
 1800SOL    HW1 5219   2.222   1.183   0.445
 1800SOL    HW2 5220   2.233   1.020   0.441
 1801SOL     OW 5221   2.428   0.537   0.865
 1801SOL    HW1 5222   2.440   0.603   0.791
 1801SOL    HW2 5223   2.474   0.571   0.948
 1802SOL     OW 5224   3.114   1.348   0.388
 1802SOL    HW1 5225   3.164   1.425   0.428
 1802SOL    HW2 5226   3.019   1.350   0.420
 1803SOL     OW 5227   3.134   1.445   1.142
 1803SOL    HW1 5228   3.181   1.458   1.229
 1803SOL    HW2 5229   3.068   1.371   1.151
 1804SOL     OW 5230   3.444   0.639   0.472
 1804SOL    HW1 5231   3.413   0.700   0.545
 1804SOL    HW2 5232   3.494   0.691   0.403
 1805SOL     OW 5233   2.216   1.510   1.329
 1805SOL    HW1 5234   2.195   1.466   1.242
 1805SOL    HW2 5235   2.313   1.536   1.332
 1806SOL     OW 5236   2.264   0.751   1.598
 1806SOL    HW1 5237   2.332   0.806   1.551
 1806SOL    HW2 5238   2.304   0.663   1.625
 1807SOL     OW 5239   3.449   0.779   1.670
 1807SOL    HW1 5240   3.357   0.817   1.665
 1807SOL    HW2 5241   3.509   0.826   1.605
 1808SOL     OW 5242   2.875   0.105   1.770
 1808SOL    HW1 5243   2.881   0.190   1.718
 1808SOL    HW2 5244   2.907   0.029   1.713
 1809SOL     OW 5245   2.366   0.050   1.740
 1809SOL    HW1 5246   2.324  -0.007   1.670
 1809SOL    HW2 5247   2.300   0.119   1.772
 1810SOL     OW 5248   2.435   0.870   1.029
 1810SOL    HW1 5249   2.479   0.959   1.020
 1810SOL    HW2 5250   2.372   0.870   1.106
 1811SOL     OW 5251   3.222   0.862   1.045
 1811SOL    HW1 5252   3.147   0.862   0.979
 1811SOL    HW2 5253   3.259   0.770   1.054
 1812SOL     OW 5254   3.071   0.525   0.275
 1812SOL    HW1 5255   3.084   0.441   0.329
 1812SOL    HW2 5256   3.042   0.599   0.335
 1813SOL     OW 5257   2.169   0.213   1.231
 1813SOL    HW1 5258   2.146   0.250   1.321
 1813SOL    HW2 5259   2.139   0.118   1.225
 1814SOL     OW 5260   1.899   1.310   1.282
 1814SOL    HW1 5261   1.952   1.261   1.350
 1814SOL    HW2 5262   1.921   1.408   1.287
 1815SOL     OW 5263   2.594   0.634   1.064
 1815SOL    HW1 5264   2.653   0.608   0.988
 1815SOL    HW2 5265   2.566   0.730   1.053
 1816SOL     OW 5266   3.590   0.935   1.854
 1816SOL    HW1 5267   3.544   0.928   1.765
 1816SOL    HW2 5268   3.528   0.979   1.920
 1817SOL     OW 5269   2.169   0.063   0.618
 1817SOL    HW1 5270   2.158   0.157   0.651
 1817SOL    HW2 5271   2.164   0.000   0.695
 1818SOL     OW 5272   3.484   0.367   0.374
 1818SOL    HW1 5273   3.486   0.291   0.438
 1818SOL    HW2 5274   3.436   0.444   0.414
 1819SOL     OW 5275   2.885   0.766   0.966
 1819SOL    HW1 5276   2.900   0.787   1.062
 1819SOL    HW2 5277   2.855   0.671   0.957
 1820SOL     OW 5278   2.842   1.573   1.700
 1820SOL    HW1 5279   2.822   1.617   1.612
 1820SOL    HW2 5280   2.881   1.482   1.684
 1821SOL     OW 5281   3.721   1.518   1.605
 1821SOL    HW1 5282   3.735   1.545   1.510
 1821SOL    HW2 5283   3.804   1.540   1.658
 1822SOL     OW 5284   2.212   0.898   1.804
 1822SOL    HW1 5285   2.288   0.942   1.852
 1822SOL    HW2 5286   2.247   0.851   1.722
 1823SOL     OW 5287   3.402   0.274   0.125
 1823SOL    HW1 5288   3.341   0.199   0.148
 1823SOL    HW2 5289   3.424   0.326   0.208
 1824SOL     OW 5290   3.165   0.838   0.042
 1824SOL    HW1 5291   3.199   0.745   0.057
 1824SOL    HW2 5292   3.183   0.865  -0.053
 1825SOL     OW 5293   2.930   1.333   0.849
 1825SOL    HW1 5294   2.937   1.249   0.794
 1825SOL    HW2 5295   2.992   1.402   0.813
 1826SOL     OW 5296   2.181   0.810   0.949
 1826SOL    HW1 5297   2.274   0.846   0.954
 1826SOL    HW2 5298   2.175   0.725   1.001
 1827SOL     OW 5299   2.201   0.509   1.006
 1827SOL    HW1 5300   2.149   0.426   0.989
 1827SOL    HW2 5301   2.278   0.514   0.942
 1828SOL     OW 5302   3.000   0.380   1.678
 1828SOL    HW1 5303   2.955   0.443   1.742
 1828SOL    HW2 5304   3.093   0.411   1.661
 1829SOL     OW 5305   3.022   0.207   1.477
 1829SOL    HW1 5306   3.022   0.271   1.554
 1829SOL    HW2 5307   3.050   0.255   1.394
 1830SOL     OW 5308   1.950   1.801   0.927
 1830SOL    HW1 5309   1.908   1.715   0.900
 1830SOL    HW2 5310   2.044   1.804   0.893
 1831SOL     OW 5311   2.366   1.568   0.910
 1831SOL    HW1 5312   2.432   1.642   0.919
 1831SOL    HW2 5313   2.410   1.489   0.868
 1832SOL     OW 5314   2.864   0.796   1.238
 1832SOL    HW1 5315   2.905   0.764   1.324
 1832SOL    HW2 5316   2.768   0.769   1.235
 1833SOL     OW 5317   1.902   0.544   1.114
 1833SOL    HW1 5318   1.987   0.511   1.073
 1833SOL    HW2 5319   1.915   0.559   1.212
 1834SOL     OW 5320   2.051   0.520   1.722
 1834SOL    HW1 5321   2.110   0.480   1.652
 1834SOL    HW2 5322   1.993   0.591   1.681
 1835SOL     OW 5323   3.231   0.950   1.660
 1835SOL    HW1 5324   3.270   1.039   1.680
 1835SOL    HW2 5325   3.241   0.930   1.563
 1836SOL     OW 5326   2.677   0.572   0.325
 1836SOL    HW1 5327   2.684   0.483   0.279
 1836SOL    HW2 5328   2.583   0.606   0.317
 1837SOL     OW 5329   3.519   0.604   1.206
 1837SOL    HW1 5330   3.481   0.535   1.268
 1837SOL    HW2 5331   3.601   0.568   1.162
 1838SOL     OW 5332   2.114   1.564   1.744
 1838SOL    HW1 5333   2.084   1.621   1.820
 1838SOL    HW2 5334   2.107   1.467   1.770
 1839SOL     OW 5335   2.533   0.464   1.269
 1839SOL    HW1 5336   2.499   0.375   1.239
 1839SOL    HW2 5337   2.559   0.518   1.189
 1840SOL     OW 5338   2.792   1.678   1.465
 1840SOL    HW1 5339   2.768   1.660   1.370
 1840SOL    HW2 5340   2.822   1.772   1.475
 1841SOL     OW 5341   2.335   0.500   0.191
 1841SOL    HW1 5342   2.396   0.580   0.195
 1841SOL    HW2 5343   2.240   0.531   0.198
 1842SOL     OW 5344   2.021   1.137   1.466
 1842SOL    HW1 5345   2.043   1.076   1.542
 1842SOL    HW2 5346   2.031   1.088   1.380
 1843SOL     OW 5347   3.209   1.059   1.234
 1843SOL    HW1 5348   3.233   0.996   1.160
 1843SOL    HW2 5349   3.119   1.099   1.216
 1844SOL     OW 5350   3.164   0.855   0.309
 1844SOL    HW1 5351   3.078   0.824   0.351
 1844SOL    HW2 5352   3.160   0.841   0.210
 1845SOL     OW 5353   3.621   1.747   1.154
 1845SOL    HW1 5354   3.682   1.777   1.081
 1845SOL    HW2 5355   3.583   1.658   1.132
 1846SOL     OW 5356   3.114   1.731   1.128
 1846SOL    HW1 5357   3.198   1.736   1.074
 1846SOL    HW2 5358   3.091   1.635   1.146
 1847SOL     OW 5359   1.945   1.258   1.022
 1847SOL    HW1 5360   1.940   1.257   1.122
 1847SOL    HW2 5361   1.862   1.217   0.984
 1848SOL     OW 5362   2.550   1.662   1.716
 1848SOL    HW1 5363   2.494   1.743   1.725
 1848SOL    HW2 5364   2.602   1.666   1.630
 1849SOL     OW 5365   2.765   0.086   0.133
 1849SOL    HW1 5366   2.816   0.087   0.047
 1849SOL    HW2 5367   2.821   0.044   0.204
 1850SOL     OW 5368   3.588   0.135   0.523
 1850SOL    HW1 5369   3.661   0.118   0.456
 1850SOL    HW2 5370   3.557   0.048   0.561
 1851SOL     OW 5371   3.250   1.573   0.477
 1851SOL    HW1 5372   3.317   1.585   0.403
 1851SOL    HW2 5373   3.210   1.662   0.500
 1852SOL     OW 5374   1.992   1.794   1.851
 1852SOL    HW1 5375   1.951   1.720   1.904
 1852SOL    HW2 5376   2.056   1.845   1.909
 1853SOL     OW 5377   3.142   0.927   0.672
 1853SOL    HW1 5378   3.202   0.846   0.674
 1853SOL    HW2 5379   3.182   0.996   0.612
 1854SOL     OW 5380   2.692   1.273   1.422
 1854SOL    HW1 5381   2.687   1.306   1.517
 1854SOL    HW2 5382   2.606   1.292   1.376
 1855SOL     OW 5383   2.534   1.616   0.154
 1855SOL    HW1 5384   2.543   1.626   0.055
 1855SOL    HW2 5385   2.494   1.527   0.175
 1856SOL     OW 5386   3.512   1.720   1.394
 1856SOL    HW1 5387   3.565   1.730   1.310
 1856SOL    HW2 5388   3.485   1.810   1.428
 1857SOL     OW 5389   3.703   0.175   0.963
 1857SOL    HW1 5390   3.742   0.090   0.927
 1857SOL    HW2 5391   3.605   0.177   0.944
 1858SOL     OW 5392   2.125   0.326   0.720
 1858SOL    HW1 5393   2.046   0.377   0.686
 1858SOL    HW2 5394   2.116   0.311   0.818
 1859SOL     OW 5395   3.056   1.612   0.031
 1859SOL    HW1 5396   3.062   1.519   0.068
 1859SOL    HW2 5397   2.997   1.612  -0.049
 1860SOL     OW 5398   2.684   1.002   1.372
 1860SOL    HW1 5399   2.724   1.001   1.280
 1860SOL    HW2 5400   2.694   1.094   1.412
 1861SOL     OW 5401   2.778   0.910   0.291
 1861SOL    HW1 5402   2.841   0.948   0.223
 1861SOL    HW2 5403   2.818   0.827   0.330
 1862SOL     OW 5404   3.366   1.607   0.044
 1862SOL    HW1 5405   3.274   1.644   0.051
 1862SOL    HW2 5406   3.404   1.627  -0.046
 1863SOL     OW 5407   2.234   1.288   1.490
 1863SOL    HW1 5408   2.221   1.381   1.456
 1863SOL    HW2 5409   2.150   1.236   1.477
 1864SOL     OW 5410   3.476   1.292   1.289
 1864SOL    HW1 5411   3.536   1.295   1.369
 1864SOL    HW2 5412   3.401   1.356   1.302
 1865SOL     OW 5413   2.901   1.098   0.696
 1865SOL    HW1 5414   2.831   1.051   0.750
 1865SOL    HW2 5415   2.960   1.030   0.653
 1866SOL     OW 5416   2.876   0.236   0.971
 1866SOL    HW1 5417   2.868   0.200   0.878
 1866SOL    HW2 5418   2.874   0.160   1.036
 1867SOL     OW 5419   2.452   1.487   0.491
 1867SOL    HW1 5420   2.494   1.429   0.421
 1867SOL    HW2 5421   2.408   1.566   0.447
 1868SOL     OW 5422   3.571   0.385   1.381
 1868SOL    HW1 5423   3.644   0.454   1.385
 1868SOL    HW2 5424   3.599   0.310   1.322
 1869SOL     OW 5425   2.117   1.348   0.290
 1869SOL    HW1 5426   2.021   1.349   0.263
 1869SOL    HW2 5427   2.129   1.401   0.374
 1870SOL     OW 5428   1.967   1.013   1.726
 1870SOL    HW1 5429   1.890   0.980   1.780
 1870SOL    HW2 5430   2.052   0.983   1.768
 1871SOL     OW 5431   2.534   0.203   1.489
 1871SOL    HW1 5432   2.624   0.187   1.449
 1871SOL    HW2 5433   2.542   0.208   1.588
 1872SOL     OW 5434   3.302   0.856   1.398
 1872SOL    HW1 5435   3.245   0.908   1.335
 1872SOL    HW2 5436   3.398   0.868   1.374
 1873SOL     OW 5437   1.934   0.166   0.318
 1873SOL    HW1 5438   1.917   0.249   0.264
 1873SOL    HW2 5439   2.024   0.129   0.296
 1874SOL     OW 5440   3.045   1.335   0.119
 1874SOL    HW1 5441   2.946   1.324   0.121
 1874SOL    HW2 5442   3.079   1.350   0.212
 1875SOL     OW 5443   2.475   0.842   1.431
 1875SOL    HW1 5444   2.531   0.923   1.414
 1875SOL    HW2 5445   2.534   0.762   1.434
 1876SOL     OW 5446   3.355   1.767   0.959
 1876SOL    HW1 5447   3.388   1.831   0.890
 1876SOL    HW2 5448   3.421   1.761   1.034
 1877SOL     OW 5449   2.578   0.565   1.708
 1877SOL    HW1 5450   2.597   0.630   1.782
 1877SOL    HW2 5451   2.638   0.485   1.717
 1878SOL     OW 5452   3.312   1.220   1.633
 1878SOL    HW1 5453   3.303   1.210   1.732
 1878SOL    HW2 5454   3.408   1.213   1.607
 1879SOL     OW 5455   2.252   1.741   1.560
 1879SOL    HW1 5456   2.161   1.782   1.558
 1879SOL    HW2 5457   2.245   1.647   1.592
 1880SOL     OW 5458   3.536   0.883   1.254
 1880SOL    HW1 5459   3.509   0.794   1.217
 1880SOL    HW2 5460   3.537   0.951   1.181
 1881SOL     OW 5461   3.087   0.325   0.449
 1881SOL    HW1 5462   3.152   0.251   0.438
 1881SOL    HW2 5463   3.107   0.375   0.533
 1882SOL     OW 5464   2.456   0.745   0.652
 1882SOL    HW1 5465   2.506   0.830   0.633
 1882SOL    HW2 5466   2.368   0.747   0.604
 1883SOL     OW 5467   3.639   0.342   1.642
 1883SOL    HW1 5468   3.622   0.373   1.548
 1883SOL    HW2 5469   3.555   0.305   1.680
 1884SOL     OW 5470   3.592   0.934   1.517
 1884SOL    HW1 5471   3.630   1.025   1.532
 1884SOL    HW2 5472   3.584   0.917   1.418
 1885SOL     OW 5473   2.721   1.374   0.016
 1885SOL    HW1 5474   2.675   1.389   0.104
 1885SOL    HW2 5475   2.765   1.459  -0.014
 1886SOL     OW 5476   2.523   1.790   0.953
 1886SOL    HW1 5477   2.477   1.878   0.940
 1886SOL    HW2 5478   2.622   1.802   0.946
 1887SOL     OW 5479   2.721   0.956   0.861
 1887SOL    HW1 5480   2.775   0.887   0.909
 1887SOL    HW2 5481   2.689   1.025   0.927
 1888SOL     OW 5482   2.945   0.984   0.087
 1888SOL    HW1 5483   2.922   1.037   0.005
 1888SOL    HW2 5484   3.026   0.928   0.068
 1889SOL     OW 5485   3.723   1.569   0.851
 1889SOL    HW1 5486   3.652   1.557   0.781
 1889SOL    HW2 5487   3.724   1.490   0.911
 1890SOL     OW 5488   2.083   1.314   1.844
 1890SOL    HW1 5489   2.018   1.241   1.823
 1890SOL    HW2 5490   2.087   1.328   1.942
 1891SOL     OW 5491   1.941   1.240   0.653
 1891SOL    HW1 5492   1.940   1.193   0.741
 1891SOL    HW2 5493   2.023   1.212   0.602
 1892SOL     OW 5494   2.534   1.391   1.624
 1892SOL    HW1 5495   2.456   1.341   1.662
 1892SOL    HW2 5496   2.531   1.486   1.655
 1893SOL     OW 5497   3.686   0.192   1.227
 1893SOL    HW1 5498   3.682   0.102   1.271
 1893SOL    HW2 5499   3.689   0.181   1.128
 1894SOL     OW 5500   2.290   0.424   0.520
 1894SOL    HW1 5501   2.320   0.352   0.458
 1894SOL    HW2 5502   2.251   0.384   0.603
 1895SOL     OW 5503   3.567   1.487   1.104
 1895SOL    HW1 5504   3.474   1.462   1.077
 1895SOL    HW2 5505   3.593   1.437   1.186
 1896SOL     OW 5506   2.179   0.547   1.280
 1896SOL    HW1 5507   2.217   0.488   1.352
 1896SOL    HW2 5508   2.219   0.521   1.192
 1897SOL     OW 5509   2.674   1.586   0.687
 1897SOL    HW1 5510   2.706   1.596   0.593
 1897SOL    HW2 5511   2.595   1.524   0.689
 1898SOL     OW 5512   3.286   0.214   1.112
 1898SOL    HW1 5513   3.338   0.149   1.167
 1898SOL    HW2 5514   3.237   0.277   1.173
 1899SOL     OW 5515   2.863   0.034   1.154
 1899SOL    HW1 5516   2.800  -0.038   1.123
 1899SOL    HW2 5517   2.956  -0.002   1.154
 1900SOL     OW 5518   2.632   1.330   0.301
 1900SOL    HW1 5519   2.586   1.243   0.318
 1900SOL    HW2 5520   2.723   1.327   0.342
 1901SOL     OW 5521   2.480   1.567   1.284
 1901SOL    HW1 5522   2.475   1.649   1.341
 1901SOL    HW2 5523   2.569   1.564   1.239
 1902SOL     OW 5524   3.214   0.052   0.168
 1902SOL    HW1 5525   3.249   0.011   0.084
 1902SOL    HW2 5526   3.124   0.014   0.188
 1903SOL     OW 5527   3.162   0.453   0.691
 1903SOL    HW1 5528   3.103   0.533   0.695
 1903SOL    HW2 5529   3.177   0.418   0.784
 1904SOL     OW 5530   3.455   0.221   0.882
 1904SOL    HW1 5531   3.371   0.220   0.936
 1904SOL    HW2 5532   3.457   0.304   0.826
 1905SOL     OW 5533   1.901   1.077   0.300
 1905SOL    HW1 5534   2.000   1.066   0.291
 1905SOL    HW2 5535   1.861   0.991   0.332
 1906SOL     OW 5536   2.737   1.646   0.337
 1906SOL    HW1 5537   2.660   1.611   0.283
 1906SOL    HW2 5538   2.705   1.717   0.399
 1907SOL     OW 5539   2.092   0.628   1.975
 1907SOL    HW1 5540   1.999   0.626   2.012
 1907SOL    HW2 5541   2.093   0.589   1.883
 1908SOL     OW 5542   2.087   0.275   2.858
 1908SOL    HW1 5543   2.122   0.258   2.950
 1908SOL    HW2 5544   1.999   0.230   2.846
 1909SOL     OW 5545   1.881   0.368   2.509
 1909SOL    HW1 5546   1.799   0.411   2.548
 1909SOL    HW2 5547   1.853   0.295   2.446
 1910SOL     OW 5548   2.431   1.275   3.027
 1910SOL    HW1 5549   2.338   1.268   2.990
 1910SOL    HW2 5550   2.442   1.364   3.071
 1911SOL     OW 5551   3.417   1.511   2.565
 1911SOL    HW1 5552   3.360   1.495   2.646
 1911SOL    HW2 5553   3.358   1.521   2.485
 1912SOL     OW 5554   2.997   0.703   2.579
 1912SOL    HW1 5555   3.054   0.781   2.554
 1912SOL    HW2 5556   2.937   0.729   2.655
 1913SOL     OW 5557   3.617   0.607   2.093
 1913SOL    HW1 5558   3.605   0.594   1.994
 1913SOL    HW2 5559   3.587   0.526   2.142
 1914SOL     OW 5560   2.630   1.144   2.885
 1914SOL    HW1 5561   2.552   1.161   2.945
 1914SOL    HW2 5562   2.664   1.231   2.849
 1915SOL     OW 5563   2.712   0.798   3.685
 1915SOL    HW1 5564   2.708   0.874   3.750
 1915SOL    HW2 5565   2.734   0.834   3.594
 1916SOL     OW 5566   2.547   1.012   2.527
 1916SOL    HW1 5567   2.616   0.996   2.597
 1916SOL    HW2 5568   2.474   1.069   2.565
 1917SOL     OW 5569   2.548   1.161   3.665
 1917SOL    HW1 5570   2.608   1.240   3.679
 1917SOL    HW2 5571   2.462   1.192   3.624
 1918SOL     OW 5572   2.197   1.435   2.923
 1918SOL    HW1 5573   2.119   1.404   2.870
 1918SOL    HW2 5574   2.255   1.493   2.866
 1919SOL     OW 5575   3.322   1.505   3.201
 1919SOL    HW1 5576   3.346   1.599   3.227
 1919SOL    HW2 5577   3.306   1.451   3.283
 1920SOL     OW 5578   2.300   0.392   3.361
 1920SOL    HW1 5579   2.382   0.336   3.370
 1920SOL    HW2 5580   2.219   0.334   3.365
 1921SOL     OW 5581   3.465   0.447   2.599
 1921SOL    HW1 5582   3.391   0.493   2.549
 1921SOL    HW2 5583   3.516   0.515   2.652
 1922SOL     OW 5584   2.093   1.713   2.345
 1922SOL    HW1 5585   2.127   1.790   2.399
 1922SOL    HW2 5586   2.137   1.713   2.255
 1923SOL     OW 5587   2.989   1.341   3.552
 1923SOL    HW1 5588   3.036   1.341   3.640
 1923SOL    HW2 5589   2.941   1.254   3.541
 1924SOL     OW 5590   2.092   1.434   2.400
 1924SOL    HW1 5591   2.066   1.530   2.400
 1924SOL    HW2 5592   2.021   1.380   2.445
 1925SOL     OW 5593   2.102   1.091   2.748
 1925SOL    HW1 5594   2.116   1.007   2.800
 1925SOL    HW2 5595   2.047   1.155   2.803
 1926SOL     OW 5596   2.482   1.786   3.301
 1926SOL    HW1 5597   2.390   1.769   3.336
 1926SOL    HW2 5598   2.510   1.878   3.327
 1927SOL     OW 5599   2.468   0.964   1.985
 1927SOL    HW1 5600   2.475   1.048   1.931
 1927SOL    HW2 5601   2.514   0.977   2.073
 1928SOL     OW 5602   3.456   0.114   3.342
 1928SOL    HW1 5603   3.438   0.181   3.270
 1928SOL    HW2 5604   3.453   0.160   3.431
 1929SOL     OW 5605   1.984   0.643   2.425
 1929SOL    HW1 5606   1.939   0.555   2.442
 1929SOL    HW2 5607   1.983   0.697   2.509
 1930SOL     OW 5608   3.704   1.767   2.221
 1930SOL    HW1 5609   3.758   1.738   2.301
 1930SOL    HW2 5610   3.734   1.857   2.192
 1931SOL     OW 5611   1.889   1.596   1.979
 1931SOL    HW1 5612   1.870   1.500   2.000
 1931SOL    HW2 5613   1.856   1.654   2.054
 1932SOL     OW 5614   3.551   0.922   2.474
 1932SOL    HW1 5615   3.646   0.893   2.482
 1932SOL    HW2 5616   3.543   0.987   2.399
 1933SOL     OW 5617   3.503   1.108   2.294
 1933SOL    HW1 5618   3.589   1.110   2.242
 1933SOL    HW2 5619   3.517   1.155   2.382
 1934SOL     OW 5620   1.975   0.737   3.459
 1934SOL    HW1 5621   2.063   0.724   3.504
 1934SOL    HW2 5622   1.962   0.834   3.437
 1935SOL     OW 5623   2.475   1.365   2.588
 1935SOL    HW1 5624   2.426   1.278   2.597
 1935SOL    HW2 5625   2.452   1.408   2.501
 1936SOL     OW 5626   3.155   1.228   3.285
 1936SOL    HW1 5627   3.192   1.155   3.227
 1936SOL    HW2 5628   3.207   1.233   3.370
 1937SOL     OW 5629   2.671   0.004   2.364
 1937SOL    HW1 5630   2.711   0.095   2.355
 1937SOL    HW2 5631   2.571   0.012   2.370
 1938SOL     OW 5632   2.059   0.976   3.126
 1938SOL    HW1 5633   2.148   0.931   3.112
 1938SOL    HW2 5634   1.986   0.911   3.107
 1939SOL     OW 5635   3.387   0.999   2.052
 1939SOL    HW1 5636   3.324   0.923   2.065
 1939SOL    HW2 5637   3.435   1.017   2.138
 1940SOL     OW 5638   3.049   1.792   3.478
 1940SOL    HW1 5639   3.073   1.852   3.402
 1940SOL    HW2 5640   3.056   1.697   3.448
 1941SOL     OW 5641   2.179   0.251   3.663
 1941SOL    HW1 5642   2.250   0.322   3.669
 1941SOL    HW2 5643   2.091   0.290   3.691
 1942SOL     OW 5644   3.328   1.417   2.815
 1942SOL    HW1 5645   3.269   1.423   2.895
 1942SOL    HW2 5646   3.313   1.329   2.769
 1943SOL     OW 5647   3.529   1.714   2.434
 1943SOL    HW1 5648   3.488   1.691   2.346
 1943SOL    HW2 5649   3.511   1.640   2.499
 1944SOL     OW 5650   2.460   0.729   2.132
 1944SOL    HW1 5651   2.484   0.798   2.064
 1944SOL    HW2 5652   2.382   0.762   2.186
 1945SOL     OW 5653   3.143   0.345   2.806
 1945SOL    HW1 5654   3.057   0.295   2.793
 1945SOL    HW2 5655   3.205   0.291   2.862
 1946SOL     OW 5656   3.438   1.662   2.169
 1946SOL    HW1 5657   3.527   1.708   2.172
 1946SOL    HW2 5658   3.417   1.638   2.074
 1947SOL     OW 5659   2.669   0.605   3.327
 1947SOL    HW1 5660   2.622   0.602   3.416
 1947SOL    HW2 5661   2.618   0.550   3.261
 1948SOL     OW 5662   3.256   0.469   3.536
 1948SOL    HW1 5663   3.236   0.512   3.624
 1948SOL    HW2 5664   3.334   0.407   3.545
 1949SOL     OW 5665   2.835   0.890   3.434
 1949SOL    HW1 5666   2.881   0.806   3.405
 1949SOL    HW2 5667   2.779   0.924   3.359
 1950SOL     OW 5668   2.853   0.410   3.104
 1950SOL    HW1 5669   2.776   0.444   3.158
 1950SOL    HW2 5670   2.819   0.359   3.025
 1951SOL     OW 5671   2.903   0.701   2.291
 1951SOL    HW1 5672   2.929   0.697   2.387
 1951SOL    HW2 5673   2.818   0.650   2.277
 1952SOL     OW 5674   1.938   0.811   2.651
 1952SOL    HW1 5675   2.037   0.799   2.660
 1952SOL    HW2 5676   1.914   0.906   2.672
 1953SOL     OW 5677   1.992   1.821   3.433
 1953SOL    HW1 5678   1.982   1.806   3.532
 1953SOL    HW2 5679   1.906   1.857   3.397
 1954SOL     OW 5680   2.727   0.348   2.057
 1954SOL    HW1 5681   2.786   0.411   2.008
 1954SOL    HW2 5682   2.746   0.254   2.028
 1955SOL     OW 5683   3.581   0.585   3.693
 1955SOL    HW1 5684   3.555   0.674   3.657
 1955SOL    HW2 5685   3.579   0.517   3.620
 1956SOL     OW 5686   3.224   1.144   2.407
 1956SOL    HW1 5687   3.307   1.115   2.359
 1956SOL    HW2 5688   3.175   1.211   2.351
 1957SOL     OW 5689   2.412   0.196   2.747
 1957SOL    HW1 5690   2.407   0.191   2.847
 1957SOL    HW2 5691   2.414   0.292   2.718
 1958SOL     OW 5692   2.870   1.456   2.339
 1958SOL    HW1 5693   2.824   1.528   2.287
 1958SOL    HW2 5694   2.866   1.476   2.437
 1959SOL     OW 5695   2.213   1.801   2.715
 1959SOL    HW1 5696   2.263   1.715   2.721
 1959SOL    HW2 5697   2.278   1.878   2.712
 1960SOL     OW 5698   3.657   1.066   2.735
 1960SOL    HW1 5699   3.595   1.051   2.659
 1960SOL    HW2 5700   3.605   1.077   2.820
 1961SOL     OW 5701   3.089   1.550   3.368
 1961SOL    HW1 5702   3.095   1.473   3.432
 1961SOL    HW2 5703   3.037   1.524   3.288
 1962SOL     OW 5704   2.183   0.943   2.104
 1962SOL    HW1 5705   2.265   0.982   2.062
 1962SOL    HW2 5706   2.156   0.861   2.055
 1963SOL     OW 5707   3.320   0.735   2.590
 1963SOL    HW1 5708   3.315   0.670   2.665
 1963SOL    HW2 5709   3.400   0.794   2.603
 1964SOL     OW 5710   2.323   1.266   3.589
 1964SOL    HW1 5711   2.273   1.267   3.503
 1964SOL    HW2 5712   2.260   1.248   3.665
 1965SOL     OW 5713   2.973   1.776   2.099
 1965SOL    HW1 5714   2.913   1.714   2.149
 1965SOL    HW2 5715   3.004   1.732   2.014
 1966SOL     OW 5716   2.064   0.285   3.360
 1966SOL    HW1 5717   1.984   0.345   3.347
 1966SOL    HW2 5718   2.054   0.236   3.446
 1967SOL     OW 5719   3.494   1.377   1.943
 1967SOL    HW1 5720   3.462   1.471   1.933
 1967SOL    HW2 5721   3.418   1.314   1.931
 1968SOL     OW 5722   2.326   1.743   2.185
 1968SOL    HW1 5723   2.359   1.782   2.271
 1968SOL    HW2 5724   2.402   1.736   2.120
 1969SOL     OW 5725   3.262   0.107   2.288
 1969SOL    HW1 5726   3.238   0.070   2.198
 1969SOL    HW2 5727   3.361   0.123   2.292
 1970SOL     OW 5728   2.111   1.785   3.103
 1970SOL    HW1 5729   2.168   1.720   3.153
 1970SOL    HW2 5730   2.095   1.752   3.010
 1971SOL     OW 5731   2.802   1.698   2.766
 1971SOL    HW1 5732   2.882   1.641   2.787
 1971SOL    HW2 5733   2.753   1.658   2.689
 1972SOL     OW 5734   2.244   0.700   2.342
 1972SOL    HW1 5735   2.289   0.610   2.339
 1972SOL    HW2 5736   2.150   0.689   2.375
 1973SOL     OW 5737   3.409   0.222   3.591
 1973SOL    HW1 5738   3.404   0.259   3.683
 1973SOL    HW2 5739   3.337   0.153   3.579
 1974SOL     OW 5740   2.476   0.122   1.979
 1974SOL    HW1 5741   2.574   0.100   1.986
 1974SOL    HW2 5742   2.445   0.105   1.886
 1975SOL     OW 5743   2.643   0.264   3.611
 1975SOL    HW1 5744   2.710   0.203   3.654
 1975SOL    HW2 5745   2.570   0.283   3.676
 1976SOL     OW 5746   2.750   1.514   3.057
 1976SOL    HW1 5747   2.727   1.489   2.963
 1976SOL    HW2 5748   2.811   1.445   3.096
 1977SOL     OW 5749   3.213   0.590   3.295
 1977SOL    HW1 5750   3.241   0.547   3.380
 1977SOL    HW2 5751   3.238   0.686   3.296
 1978SOL     OW 5752   2.665   1.402   2.786
 1978SOL    HW1 5753   2.755   1.416   2.744
 1978SOL    HW2 5754   2.594   1.404   2.715
 1979SOL     OW 5755   2.784   0.503   2.761
 1979SOL    HW1 5756   2.759   0.494   2.665
 1979SOL    HW2 5757   2.832   0.421   2.792
 1980SOL     OW 5758   2.401   0.064   2.374
 1980SOL    HW1 5759   2.320   0.065   2.432
 1980SOL    HW2 5760   2.404   0.147   2.319
 1981SOL     OW 5761   3.296   1.188   1.903
 1981SOL    HW1 5762   3.328   1.112   1.960
 1981SOL    HW2 5763   3.204   1.215   1.933
 1982SOL     OW 5764   2.159   0.035   2.033
 1982SOL    HW1 5765   2.208   0.119   2.012
 1982SOL    HW2 5766   2.221  -0.030   2.078
 1983SOL     OW 5767   2.797   0.236   2.342
 1983SOL    HW1 5768   2.749   0.277   2.264
 1983SOL    HW2 5769   2.896   0.234   2.323
 1984SOL     OW 5770   2.938   0.683   3.326
 1984SOL    HW1 5771   2.858   0.622   3.329
 1984SOL    HW2 5772   3.019   0.630   3.302
 1985SOL     OW 5773   3.089   1.570   2.655
 1985SOL    HW1 5774   3.110   1.644   2.590
 1985SOL    HW2 5775   3.157   1.570   2.728
 1986SOL     OW 5776   2.321   1.152   2.603
 1986SOL    HW1 5777   2.250   1.125   2.668
 1986SOL    HW2 5778   2.295   1.124   2.510
 1987SOL     OW 5779   3.133   1.797   2.453
 1987SOL    HW1 5780   3.177   1.861   2.389
 1987SOL    HW2 5781   3.083   1.849   2.523
 1988SOL     OW 5782   2.894   0.549   1.878
 1988SOL    HW1 5783   2.853   0.631   1.839
 1988SOL    HW2 5784   2.958   0.575   1.951
 1989SOL     OW 5785   1.940   0.556   3.248
 1989SOL    HW1 5786   2.032   0.555   3.207
 1989SOL    HW2 5787   1.934   0.630   3.315
 1990SOL     OW 5788   2.423   0.222   3.009
 1990SOL    HW1 5789   2.461   0.138   3.046
 1990SOL    HW2 5790   2.335   0.241   3.053
 1991SOL     OW 5791   2.728   0.454   2.504
 1991SOL    HW1 5792   2.696   0.526   2.442
 1991SOL    HW2 5793   2.752   0.373   2.451
 1992SOL     OW 5794   2.879   0.039   2.615
 1992SOL    HW1 5795   2.807   0.044   2.546
 1992SOL    HW2 5796   2.855  -0.030   2.684
 1993SOL     OW 5797   3.291   1.173   2.729
 1993SOL    HW1 5798   3.236   1.089   2.722
 1993SOL    HW2 5799   3.317   1.202   2.637
 1994SOL     OW 5800   3.328   0.590   2.854
 1994SOL    HW1 5801   3.298   0.495   2.861
 1994SOL    HW2 5802   3.401   0.606   2.920
 1995SOL     OW 5803   3.719   0.833   2.239
 1995SOL    HW1 5804   3.761   0.769   2.303
 1995SOL    HW2 5805   3.681   0.782   2.161
 1996SOL     OW 5806   2.350   1.385   2.036
 1996SOL    HW1 5807   2.263   1.370   2.083
 1996SOL    HW2 5808   2.333   1.411   1.941
 1997SOL     OW 5809   3.526   1.280   2.519
 1997SOL    HW1 5810   3.625   1.288   2.533
 1997SOL    HW2 5811   3.481   1.364   2.550
 1998SOL     OW 5812   3.252   0.575   1.940
 1998SOL    HW1 5813   3.198   0.554   2.021
 1998SOL    HW2 5814   3.343   0.534   1.949
 1999SOL     OW 5815   2.389   0.256   2.190
 1999SOL    HW1 5816   2.416   0.197   2.115
 1999SOL    HW2 5817   2.389   0.351   2.159
 2000SOL     OW 5818   3.616   1.223   3.450
 2000SOL    HW1 5819   3.707   1.184   3.437
 2000SOL    HW2 5820   3.624   1.319   3.474
 2001SOL     OW 5821   2.926   1.347   3.202
 2001SOL    HW1 5822   2.846   1.324   3.257
 2001SOL    HW2 5823   3.009   1.321   3.251
 2002SOL     OW 5824   3.454   1.629   3.487
 2002SOL    HW1 5825   3.481   1.663   3.397
 2002SOL    HW2 5826   3.533   1.591   3.533
 2003SOL     OW 5827   2.973   1.195   2.962
 2003SOL    HW1 5828   2.933   1.239   3.043
 2003SOL    HW2 5829   2.932   1.232   2.879
 2004SOL     OW 5830   3.500   1.099   2.941
 2004SOL    HW1 5831   3.505   1.180   3.000
 2004SOL    HW2 5832   3.414   1.101   2.890
 2005SOL     OW 5833   2.777   0.089   3.264
 2005SOL    HW1 5834   2.802   0.069   3.169
 2005SOL    HW2 5835   2.849   0.145   3.306
 2006SOL     OW 5836   2.842   1.116   3.581
 2006SOL    HW1 5837   2.743   1.122   3.591
 2006SOL    HW2 5838   2.865   1.036   3.525
 2007SOL     OW 5839   2.567   1.050   2.230
 2007SOL    HW1 5840   2.553   1.057   2.329
 2007SOL    HW2 5841   2.651   0.999   2.212
 2008SOL     OW 5842   2.272   0.813   3.113
 2008SOL    HW1 5843   2.358   0.825   3.163
 2008SOL    HW2 5844   2.230   0.726   3.140
 2009SOL     OW 5845   3.136   0.386   3.124
 2009SOL    HW1 5846   3.157   0.460   3.188
 2009SOL    HW2 5847   3.047   0.403   3.081
 2010SOL     OW 5848   1.926   1.564   3.193
 2010SOL    HW1 5849   1.880   1.646   3.159
 2010SOL    HW2 5850   2.024   1.583   3.202
 2011SOL     OW 5851   2.229   1.100   2.363
 2011SOL    HW1 5852   2.222   1.183   2.307
 2011SOL    HW2 5853   2.233   1.020   2.303
 2012SOL     OW 5854   2.428   0.537   2.727
 2012SOL    HW1 5855   2.440   0.603   2.653
 2012SOL    HW2 5856   2.474   0.571   2.810
 2013SOL     OW 5857   3.114   1.348   2.250
 2013SOL    HW1 5858   3.164   1.425   2.290
 2013SOL    HW2 5859   3.019   1.350   2.282
 2014SOL     OW 5860   3.134   1.445   3.004
 2014SOL    HW1 5861   3.181   1.458   3.091
 2014SOL    HW2 5862   3.068   1.371   3.013
 2015SOL     OW 5863   3.444   0.639   2.334
 2015SOL    HW1 5864   3.413   0.700   2.407
 2015SOL    HW2 5865   3.494   0.691   2.265
 2016SOL     OW 5866   2.216   1.510   3.191
 2016SOL    HW1 5867   2.195   1.466   3.104
 2016SOL    HW2 5868   2.313   1.536   3.194
 2017SOL     OW 5869   2.264   0.751   3.460
 2017SOL    HW1 5870   2.332   0.806   3.413
 2017SOL    HW2 5871   2.304   0.663   3.487
 2018SOL     OW 5872   3.449   0.779   3.532
 2018SOL    HW1 5873   3.357   0.817   3.527
 2018SOL    HW2 5874   3.509   0.826   3.467
 2019SOL     OW 5875   2.875   0.105   3.632
 2019SOL    HW1 5876   2.881   0.190   3.580
 2019SOL    HW2 5877   2.907   0.029   3.575
 2020SOL     OW 5878   2.366   0.050   3.602
 2020SOL    HW1 5879   2.324  -0.007   3.532
 2020SOL    HW2 5880   2.300   0.119   3.634
 2021SOL     OW 5881   2.435   0.870   2.891
 2021SOL    HW1 5882   2.479   0.959   2.882
 2021SOL    HW2 5883   2.372   0.870   2.968
 2022SOL     OW 5884   3.222   0.862   2.907
 2022SOL    HW1 5885   3.147   0.862   2.841
 2022SOL    HW2 5886   3.259   0.770   2.916
 2023SOL     OW 5887   3.071   0.525   2.137
 2023SOL    HW1 5888   3.084   0.441   2.191
 2023SOL    HW2 5889   3.042   0.599   2.197
 2024SOL     OW 5890   2.169   0.213   3.093
 2024SOL    HW1 5891   2.146   0.250   3.183
 2024SOL    HW2 5892   2.139   0.118   3.087
 2025SOL     OW 5893   1.899   1.310   3.144
 2025SOL    HW1 5894   1.952   1.261   3.212
 2025SOL    HW2 5895   1.921   1.408   3.149
 2026SOL     OW 5896   2.594   0.634   2.926
 2026SOL    HW1 5897   2.653   0.608   2.850
 2026SOL    HW2 5898   2.566   0.730   2.915
 2027SOL     OW 5899   3.590   0.935   3.716
 2027SOL    HW1 5900   3.544   0.928   3.627
 2027SOL    HW2 5901   3.528   0.979   3.782
 2028SOL     OW 5902   2.169   0.063   2.480
 2028SOL    HW1 5903   2.158   0.157   2.513
 2028SOL    HW2 5904   2.164   0.000   2.557
 2029SOL     OW 5905   3.484   0.367   2.236
 2029SOL    HW1 5906   3.486   0.291   2.300
 2029SOL    HW2 5907   3.436   0.444   2.276
 2030SOL     OW 5908   2.885   0.766   2.828
 2030SOL    HW1 5909   2.900   0.787   2.924
 2030SOL    HW2 5910   2.855   0.671   2.819
 2031SOL     OW 5911   2.842   1.573   3.562
 2031SOL    HW1 5912   2.822   1.617   3.474
 2031SOL    HW2 5913   2.881   1.482   3.546
 2032SOL     OW 5914   3.721   1.518   3.467
 2032SOL    HW1 5915   3.735   1.545   3.372
 2032SOL    HW2 5916   3.804   1.540   3.520
 2033SOL     OW 5917   2.212   0.898   3.666
 2033SOL    HW1 5918   2.288   0.942   3.714
 2033SOL    HW2 5919   2.247   0.851   3.584
 2034SOL     OW 5920   3.402   0.274   1.987
 2034SOL    HW1 5921   3.341   0.199   2.010
 2034SOL    HW2 5922   3.424   0.326   2.070
 2035SOL     OW 5923   3.165   0.838   1.904
 2035SOL    HW1 5924   3.199   0.745   1.919
 2035SOL    HW2 5925   3.183   0.865   1.809
 2036SOL     OW 5926   2.930   1.333   2.711
 2036SOL    HW1 5927   2.937   1.249   2.656
 2036SOL    HW2 5928   2.992   1.402   2.675
 2037SOL     OW 5929   2.181   0.810   2.811
 2037SOL    HW1 5930   2.274   0.846   2.816
 2037SOL    HW2 5931   2.175   0.725   2.863
 2038SOL     OW 5932   2.201   0.509   2.868
 2038SOL    HW1 5933   2.149   0.426   2.851
 2038SOL    HW2 5934   2.278   0.514   2.804
 2039SOL     OW 5935   3.000   0.380   3.540
 2039SOL    HW1 5936   2.955   0.443   3.604
 2039SOL    HW2 5937   3.093   0.411   3.523
 2040SOL     OW 5938   3.022   0.207   3.339
 2040SOL    HW1 5939   3.022   0.271   3.416
 2040SOL    HW2 5940   3.050   0.255   3.256
 2041SOL     OW 5941   1.870   1.326   2.062
 2041SOL    HW1 5942   1.777   1.347   2.031
 2041SOL    HW2 5943   1.880   1.227   2.075
 2042SOL     OW 5944   1.950   1.801   2.789
 2042SOL    HW1 5945   1.908   1.715   2.762
 2042SOL    HW2 5946   2.044   1.804   2.755
 2043SOL     OW 5947   2.366   1.568   2.772
 2043SOL    HW1 5948   2.432   1.642   2.781
 2043SOL    HW2 5949   2.410   1.489   2.730
 2044SOL     OW 5950   2.864   0.796   3.100
 2044SOL    HW1 5951   2.905   0.764   3.186
 2044SOL    HW2 5952   2.768   0.769   3.097
 2045SOL     OW 5953   1.902   0.544   2.976
 2045SOL    HW1 5954   1.987   0.511   2.935
 2045SOL    HW2 5955   1.915   0.559   3.074
 2046SOL     OW 5956   2.051   0.520   3.584
 2046SOL    HW1 5957   2.110   0.480   3.514
 2046SOL    HW2 5958   1.993   0.591   3.543
 2047SOL     OW 5959   3.231   0.950   3.522
 2047SOL    HW1 5960   3.270   1.039   3.542
 2047SOL    HW2 5961   3.241   0.930   3.425
 2048SOL     OW 5962   2.677   0.572   2.187
 2048SOL    HW1 5963   2.684   0.483   2.141
 2048SOL    HW2 5964   2.583   0.606   2.179
 2049SOL     OW 5965   3.519   0.604   3.068
 2049SOL    HW1 5966   3.481   0.535   3.130
 2049SOL    HW2 5967   3.601   0.568   3.024
 2050SOL     OW 5968   2.114   1.564   3.606
 2050SOL    HW1 5969   2.084   1.621   3.682
 2050SOL    HW2 5970   2.107   1.467   3.632
 2051SOL     OW 5971   2.533   0.464   3.131
 2051SOL    HW1 5972   2.499   0.375   3.101
 2051SOL    HW2 5973   2.559   0.518   3.051
 2052SOL     OW 5974   2.792   1.678   3.327
 2052SOL    HW1 5975   2.768   1.660   3.232
 2052SOL    HW2 5976   2.822   1.772   3.337
 2053SOL     OW 5977   2.335   0.500   2.053
 2053SOL    HW1 5978   2.396   0.580   2.057
 2053SOL    HW2 5979   2.240   0.531   2.060
 2054SOL     OW 5980   2.021   1.137   3.328
 2054SOL    HW1 5981   2.043   1.076   3.404
 2054SOL    HW2 5982   2.031   1.088   3.242
 2055SOL     OW 5983   3.209   1.059   3.096
 2055SOL    HW1 5984   3.233   0.996   3.022
 2055SOL    HW2 5985   3.119   1.099   3.078
 2056SOL     OW 5986   3.164   0.855   2.171
 2056SOL    HW1 5987   3.078   0.824   2.213
 2056SOL    HW2 5988   3.160   0.841   2.072
 2057SOL     OW 5989   3.621   1.747   3.016
 2057SOL    HW1 5990   3.682   1.777   2.943
 2057SOL    HW2 5991   3.583   1.658   2.994
 2058SOL     OW 5992   3.114   1.731   2.990
 2058SOL    HW1 5993   3.198   1.736   2.936
 2058SOL    HW2 5994   3.091   1.635   3.008
 2059SOL     OW 5995   1.945   1.258   2.884
 2059SOL    HW1 5996   1.940   1.257   2.984
 2059SOL    HW2 5997   1.862   1.217   2.846
 2060SOL     OW 5998   2.550   1.662   3.578
 2060SOL    HW1 5999   2.494   1.743   3.587
 2060SOL    HW2 6000   2.602   1.666   3.492
 2061SOL     OW 6001   3.588   0.135   2.385
 2061SOL    HW1 6002   3.661   0.118   2.318
 2061SOL    HW2 6003   3.557   0.048   2.423
 2062SOL     OW 6004   3.250   1.573   2.339
 2062SOL    HW1 6005   3.317   1.585   2.265
 2062SOL    HW2 6006   3.210   1.662   2.362
 2063SOL     OW 6007   1.992   1.794   3.713
 2063SOL    HW1 6008   1.951   1.720   3.766
 2063SOL    HW2 6009   2.056   1.845   3.771
 2064SOL     OW 6010   3.142   0.927   2.534
 2064SOL    HW1 6011   3.202   0.846   2.536
 2064SOL    HW2 6012   3.182   0.996   2.474
 2065SOL     OW 6013   2.692   1.273   3.284
 2065SOL    HW1 6014   2.687   1.306   3.379
 2065SOL    HW2 6015   2.606   1.292   3.238
 2066SOL     OW 6016   2.534   1.616   2.016
 2066SOL    HW1 6017   2.543   1.626   1.917
 2066SOL    HW2 6018   2.494   1.527   2.037
 2067SOL     OW 6019   3.512   1.720   3.256
 2067SOL    HW1 6020   3.565   1.730   3.172
 2067SOL    HW2 6021   3.485   1.810   3.290
 2068SOL     OW 6022   3.703   0.175   2.825
 2068SOL    HW1 6023   3.742   0.090   2.789
 2068SOL    HW2 6024   3.605   0.177   2.806
 2069SOL     OW 6025   2.125   0.326   2.582
 2069SOL    HW1 6026   2.046   0.377   2.548
 2069SOL    HW2 6027   2.116   0.311   2.680
 2070SOL     OW 6028   3.056   1.612   1.893
 2070SOL    HW1 6029   3.062   1.519   1.930
 2070SOL    HW2 6030   2.997   1.612   1.813
 2071SOL     OW 6031   2.684   1.002   3.234
 2071SOL    HW1 6032   2.724   1.001   3.142
 2071SOL    HW2 6033   2.694   1.094   3.274
 2072SOL     OW 6034   2.778   0.910   2.153
 2072SOL    HW1 6035   2.841   0.948   2.085
 2072SOL    HW2 6036   2.818   0.827   2.192
 2073SOL     OW 6037   3.366   1.607   1.906
 2073SOL    HW1 6038   3.274   1.644   1.913
 2073SOL    HW2 6039   3.404   1.627   1.816
 2074SOL     OW 6040   2.234   1.288   3.352
 2074SOL    HW1 6041   2.221   1.381   3.318
 2074SOL    HW2 6042   2.150   1.236   3.339
 2075SOL     OW 6043   3.476   1.292   3.151
 2075SOL    HW1 6044   3.536   1.295   3.231
 2075SOL    HW2 6045   3.401   1.356   3.164
 2076SOL     OW 6046   2.901   1.098   2.558
 2076SOL    HW1 6047   2.831   1.051   2.612
 2076SOL    HW2 6048   2.960   1.030   2.515
 2077SOL     OW 6049   2.876   0.236   2.833
 2077SOL    HW1 6050   2.868   0.200   2.740
 2077SOL    HW2 6051   2.874   0.160   2.898
 2078SOL     OW 6052   2.452   1.487   2.353
 2078SOL    HW1 6053   2.494   1.429   2.283
 2078SOL    HW2 6054   2.408   1.566   2.309
 2079SOL     OW 6055   3.571   0.385   3.243
 2079SOL    HW1 6056   3.644   0.454   3.247
 2079SOL    HW2 6057   3.599   0.310   3.184
 2080SOL     OW 6058   2.117   1.348   2.152
 2080SOL    HW1 6059   2.021   1.349   2.125
 2080SOL    HW2 6060   2.129   1.401   2.236
 2081SOL     OW 6061   1.967   1.013   3.588
 2081SOL    HW1 6062   1.890   0.980   3.642
 2081SOL    HW2 6063   2.052   0.983   3.630
 2082SOL     OW 6064   2.534   0.203   3.351
 2082SOL    HW1 6065   2.624   0.187   3.311
 2082SOL    HW2 6066   2.542   0.208   3.450
 2083SOL     OW 6067   1.937   0.345   1.895
 2083SOL    HW1 6068   1.845   0.317   1.866
 2083SOL    HW2 6069   1.968   0.422   1.839
 2084SOL     OW 6070   3.302   0.856   3.260
 2084SOL    HW1 6071   3.245   0.908   3.197
 2084SOL    HW2 6072   3.398   0.868   3.236
 2085SOL     OW 6073   1.934   0.166   2.180
 2085SOL    HW1 6074   1.917   0.249   2.126
 2085SOL    HW2 6075   2.024   0.129   2.158
 2086SOL     OW 6076   3.045   1.335   1.981
 2086SOL    HW1 6077   2.946   1.324   1.983
 2086SOL    HW2 6078   3.079   1.350   2.074
 2087SOL     OW 6079   2.475   0.842   3.293
 2087SOL    HW1 6080   2.531   0.923   3.276
 2087SOL    HW2 6081   2.534   0.762   3.296
 2088SOL     OW 6082   3.355   1.767   2.821
 2088SOL    HW1 6083   3.388   1.831   2.752
 2088SOL    HW2 6084   3.421   1.761   2.896
 2089SOL     OW 6085   2.578   0.565   3.570
 2089SOL    HW1 6086   2.597   0.630   3.644
 2089SOL    HW2 6087   2.638   0.485   3.579
 2090SOL     OW 6088   3.312   1.220   3.495
 2090SOL    HW1 6089   3.303   1.210   3.594
 2090SOL    HW2 6090   3.408   1.213   3.469
 2091SOL     OW 6091   2.252   1.741   3.422
 2091SOL    HW1 6092   2.161   1.782   3.420
 2091SOL    HW2 6093   2.245   1.647   3.454
 2092SOL     OW 6094   3.536   0.883   3.116
 2092SOL    HW1 6095   3.509   0.794   3.079
 2092SOL    HW2 6096   3.537   0.951   3.043
 2093SOL     OW 6097   3.087   0.325   2.311
 2093SOL    HW1 6098   3.152   0.251   2.300
 2093SOL    HW2 6099   3.107   0.375   2.395
 2094SOL     OW 6100   2.456   0.745   2.514
 2094SOL    HW1 6101   2.506   0.830   2.495
 2094SOL    HW2 6102   2.368   0.747   2.466
 2095SOL     OW 6103   3.639   0.342   3.504
 2095SOL    HW1 6104   3.622   0.373   3.410
 2095SOL    HW2 6105   3.555   0.305   3.542
 2096SOL     OW 6106   3.592   0.934   3.379
 2096SOL    HW1 6107   3.630   1.025   3.394
 2096SOL    HW2 6108   3.584   0.917   3.280
 2097SOL     OW 6109   2.721   1.374   1.878
 2097SOL    HW1 6110   2.675   1.389   1.966
 2097SOL    HW2 6111   2.765   1.459   1.848
 2098SOL     OW 6112   2.523   1.790   2.815
 2098SOL    HW1 6113   2.477   1.878   2.802
 2098SOL    HW2 6114   2.622   1.802   2.808
 2099SOL     OW 6115   2.721   0.956   2.723
 2099SOL    HW1 6116   2.775   0.887   2.771
 2099SOL    HW2 6117   2.689   1.025   2.789
 2100SOL     OW 6118   2.945   0.984   1.949
 2100SOL    HW1 6119   2.922   1.037   1.867
 2100SOL    HW2 6120   3.026   0.928   1.930
 2101SOL     OW 6121   3.723   1.569   2.713
 2101SOL    HW1 6122   3.652   1.557   2.643
 2101SOL    HW2 6123   3.724   1.490   2.773
 2102SOL     OW 6124   2.083   1.314   3.706
 2102SOL    HW1 6125   2.018   1.241   3.685
 2102SOL    HW2 6126   2.087   1.328   3.804
 2103SOL     OW 6127   1.941   1.240   2.515
 2103SOL    HW1 6128   1.940   1.193   2.603
 2103SOL    HW2 6129   2.023   1.212   2.464
 2104SOL     OW 6130   2.534   1.391   3.486
 2104SOL    HW1 6131   2.456   1.341   3.524
 2104SOL    HW2 6132   2.531   1.486   3.517
 2105SOL     OW 6133   3.686   0.192   3.089
 2105SOL    HW1 6134   3.682   0.102   3.133
 2105SOL    HW2 6135   3.689   0.181   2.990
 2106SOL     OW 6136   2.290   0.424   2.382
 2106SOL    HW1 6137   2.320   0.352   2.320
 2106SOL    HW2 6138   2.251   0.384   2.465
 2107SOL     OW 6139   3.567   1.487   2.966
 2107SOL    HW1 6140   3.474   1.462   2.939
 2107SOL    HW2 6141   3.593   1.437   3.048
 2108SOL     OW 6142   2.179   0.547   3.142
 2108SOL    HW1 6143   2.217   0.488   3.214
 2108SOL    HW2 6144   2.219   0.521   3.054
 2109SOL     OW 6145   2.674   1.586   2.549
 2109SOL    HW1 6146   2.706   1.596   2.455
 2109SOL    HW2 6147   2.595   1.524   2.551
 2110SOL     OW 6148   3.286   0.214   2.974
 2110SOL    HW1 6149   3.338   0.149   3.029
 2110SOL    HW2 6150   3.237   0.277   3.035
 2111SOL     OW 6151   2.863   0.034   3.016
 2111SOL    HW1 6152   2.800  -0.038   2.985
 2111SOL    HW2 6153   2.956  -0.002   3.016
 2112SOL     OW 6154   2.632   1.330   2.163
 2112SOL    HW1 6155   2.586   1.243   2.180
 2112SOL    HW2 6156   2.723   1.327   2.204
 2113SOL     OW 6157   2.480   1.567   3.146
 2113SOL    HW1 6158   2.475   1.649   3.203
 2113SOL    HW2 6159   2.569   1.564   3.101
 2114SOL     OW 6160   3.214   0.052   2.030
 2114SOL    HW1 6161   3.249   0.011   1.946
 2114SOL    HW2 6162   3.124   0.014   2.050
 2115SOL     OW 6163   3.162   0.453   2.553
 2115SOL    HW1 6164   3.103   0.533   2.557
 2115SOL    HW2 6165   3.177   0.418   2.646
 2116SOL     OW 6166   3.455   0.221   2.744
 2116SOL    HW1 6167   3.371   0.220   2.798
 2116SOL    HW2 6168   3.457   0.304   2.688
 2117SOL     OW 6169   1.901   1.077   2.162
 2117SOL    HW1 6170   2.000   1.066   2.153
 2117SOL    HW2 6171   1.861   0.991   2.194
 2118SOL     OW 6172   2.737   1.646   2.199
 2118SOL    HW1 6173   2.660   1.611   2.145
 2118SOL    HW2 6174   2.705   1.717   2.261
 2119SOL     OW 6175   2.092   0.628   3.837
 2119SOL    HW1 6176   1.999   0.626   3.874
 2119SOL    HW2 6177   2.093   0.589   3.745
 2120SOL     OW 6178   2.087   0.275   4.720
 2120SOL    HW1 6179   2.122   0.258   4.812
 2120SOL    HW2 6180   1.999   0.230   4.708
 2121SOL     OW 6181   1.881   0.368   4.371
 2121SOL    HW1 6182   1.799   0.411   4.410
 2121SOL    HW2 6183   1.853   0.295   4.308
 2122SOL     OW 6184   2.431   1.275   4.889
 2122SOL    HW1 6185   2.338   1.268   4.852
 2122SOL    HW2 6186   2.442   1.364   4.933
 2123SOL     OW 6187   3.417   1.511   4.427
 2123SOL    HW1 6188   3.360   1.495   4.508
 2123SOL    HW2 6189   3.358   1.521   4.347
 2124SOL     OW 6190   2.997   0.703   4.441
 2124SOL    HW1 6191   3.054   0.781   4.416
 2124SOL    HW2 6192   2.937   0.729   4.517
 2125SOL     OW 6193   3.617   0.607   3.955
 2125SOL    HW1 6194   3.605   0.594   3.856
 2125SOL    HW2 6195   3.587   0.526   4.004
 2126SOL     OW 6196   2.630   1.144   4.747
 2126SOL    HW1 6197   2.552   1.161   4.807
 2126SOL    HW2 6198   2.664   1.231   4.711
 2127SOL     OW 6199   2.547   1.012   4.389
 2127SOL    HW1 6200   2.616   0.996   4.459
 2127SOL    HW2 6201   2.474   1.069   4.427
 2128SOL     OW 6202   2.197   1.435   4.785
 2128SOL    HW1 6203   2.119   1.404   4.732
 2128SOL    HW2 6204   2.255   1.493   4.728
 2129SOL     OW 6205   3.465   0.447   4.461
 2129SOL    HW1 6206   3.391   0.493   4.411
 2129SOL    HW2 6207   3.516   0.515   4.514
 2130SOL     OW 6208   2.093   1.713   4.207
 2130SOL    HW1 6209   2.127   1.790   4.261
 2130SOL    HW2 6210   2.137   1.713   4.117
 2131SOL     OW 6211   2.092   1.434   4.262
 2131SOL    HW1 6212   2.066   1.530   4.262
 2131SOL    HW2 6213   2.021   1.380   4.307
 2132SOL     OW 6214   2.102   1.091   4.610
 2132SOL    HW1 6215   2.116   1.007   4.662
 2132SOL    HW2 6216   2.047   1.155   4.665
 2133SOL     OW 6217   2.482   1.786   5.163
 2133SOL    HW1 6218   2.390   1.769   5.198
 2133SOL    HW2 6219   2.510   1.878   5.189
 2134SOL     OW 6220   2.468   0.964   3.847
 2134SOL    HW1 6221   2.475   1.048   3.793
 2134SOL    HW2 6222   2.514   0.977   3.935
 2135SOL     OW 6223   1.984   0.643   4.287
 2135SOL    HW1 6224   1.939   0.555   4.304
 2135SOL    HW2 6225   1.983   0.697   4.371
 2136SOL     OW 6226   3.704   1.767   4.083
 2136SOL    HW1 6227   3.758   1.738   4.163
 2136SOL    HW2 6228   3.734   1.857   4.054
 2137SOL     OW 6229   1.889   1.596   3.841
 2137SOL    HW1 6230   1.870   1.500   3.862
 2137SOL    HW2 6231   1.856   1.654   3.916
 2138SOL     OW 6232   3.551   0.922   4.336
 2138SOL    HW1 6233   3.646   0.893   4.344
 2138SOL    HW2 6234   3.543   0.987   4.261
 2139SOL     OW 6235   3.503   1.108   4.156
 2139SOL    HW1 6236   3.589   1.110   4.104
 2139SOL    HW2 6237   3.517   1.155   4.244
 2140SOL     OW 6238   2.475   1.365   4.450
 2140SOL    HW1 6239   2.426   1.278   4.459
 2140SOL    HW2 6240   2.452   1.408   4.363
 2141SOL     OW 6241   2.671   0.004   4.226
 2141SOL    HW1 6242   2.711   0.095   4.217
 2141SOL    HW2 6243   2.571   0.012   4.232
 2142SOL     OW 6244   2.059   0.976   4.988
 2142SOL    HW1 6245   2.148   0.931   4.974
 2142SOL    HW2 6246   1.986   0.911   4.969
 2143SOL     OW 6247   3.387   0.999   3.914
 2143SOL    HW1 6248   3.324   0.923   3.927
 2143SOL    HW2 6249   3.435   1.017   4.000
 2144SOL     OW 6250   3.328   1.417   4.677
 2144SOL    HW1 6251   3.269   1.423   4.757
 2144SOL    HW2 6252   3.313   1.329   4.631
 2145SOL     OW 6253   3.529   1.714   4.296
 2145SOL    HW1 6254   3.488   1.691   4.208
 2145SOL    HW2 6255   3.511   1.640   4.361
 2146SOL     OW 6256   2.460   0.729   3.994
 2146SOL    HW1 6257   2.484   0.798   3.926
 2146SOL    HW2 6258   2.382   0.762   4.048
 2147SOL     OW 6259   3.143   0.345   4.668
 2147SOL    HW1 6260   3.057   0.295   4.655
 2147SOL    HW2 6261   3.205   0.291   4.724
 2148SOL     OW 6262   3.438   1.662   4.031
 2148SOL    HW1 6263   3.527   1.708   4.034
 2148SOL    HW2 6264   3.417   1.638   3.936
 2149SOL     OW 6265   2.853   0.410   4.966
 2149SOL    HW1 6266   2.776   0.444   5.020
 2149SOL    HW2 6267   2.819   0.359   4.887
 2150SOL     OW 6268   2.903   0.701   4.153
 2150SOL    HW1 6269   2.929   0.697   4.249
 2150SOL    HW2 6270   2.818   0.650   4.139
 2151SOL     OW 6271   1.938   0.811   4.513
 2151SOL    HW1 6272   2.037   0.799   4.522
 2151SOL    HW2 6273   1.914   0.906   4.534
 2152SOL     OW 6274   2.727   0.348   3.919
 2152SOL    HW1 6275   2.786   0.411   3.870
 2152SOL    HW2 6276   2.746   0.254   3.890
 2153SOL     OW 6277   3.224   1.144   4.269
 2153SOL    HW1 6278   3.307   1.115   4.221
 2153SOL    HW2 6279   3.175   1.211   4.213
 2154SOL     OW 6280   2.412   0.196   4.609
 2154SOL    HW1 6281   2.407   0.191   4.709
 2154SOL    HW2 6282   2.414   0.292   4.580
 2155SOL     OW 6283   2.870   1.456   4.201
 2155SOL    HW1 6284   2.824   1.528   4.149
 2155SOL    HW2 6285   2.866   1.476   4.299
 2156SOL     OW 6286   2.213   1.801   4.577
 2156SOL    HW1 6287   2.263   1.715   4.583
 2156SOL    HW2 6288   2.278   1.878   4.574
 2157SOL     OW 6289   3.657   1.066   4.597
 2157SOL    HW1 6290   3.595   1.051   4.521
 2157SOL    HW2 6291   3.605   1.077   4.682
 2158SOL     OW 6292   2.183   0.943   3.966
 2158SOL    HW1 6293   2.265   0.982   3.924
 2158SOL    HW2 6294   2.156   0.861   3.917
 2159SOL     OW 6295   3.320   0.735   4.452
 2159SOL    HW1 6296   3.315   0.670   4.527
 2159SOL    HW2 6297   3.400   0.794   4.465
 2160SOL     OW 6298   2.973   1.776   3.961
 2160SOL    HW1 6299   2.913   1.714   4.011
 2160SOL    HW2 6300   3.004   1.732   3.876
 2161SOL     OW 6301   3.494   1.377   3.805
 2161SOL    HW1 6302   3.462   1.471   3.795
 2161SOL    HW2 6303   3.418   1.314   3.793
 2162SOL     OW 6304   2.326   1.743   4.047
 2162SOL    HW1 6305   2.359   1.782   4.133
 2162SOL    HW2 6306   2.402   1.736   3.982
 2163SOL     OW 6307   3.262   0.107   4.150
 2163SOL    HW1 6308   3.238   0.070   4.060
 2163SOL    HW2 6309   3.361   0.123   4.154
 2164SOL     OW 6310   2.111   1.785   4.965
 2164SOL    HW1 6311   2.168   1.720   5.015
 2164SOL    HW2 6312   2.095   1.752   4.872
 2165SOL     OW 6313   2.802   1.698   4.628
 2165SOL    HW1 6314   2.882   1.641   4.649
 2165SOL    HW2 6315   2.753   1.658   4.551
 2166SOL     OW 6316   2.244   0.700   4.204
 2166SOL    HW1 6317   2.289   0.610   4.201
 2166SOL    HW2 6318   2.150   0.689   4.237
 2167SOL     OW 6319   2.476   0.122   3.841
 2167SOL    HW1 6320   2.574   0.100   3.848
 2167SOL    HW2 6321   2.445   0.105   3.748
 2168SOL     OW 6322   2.665   1.402   4.648
 2168SOL    HW1 6323   2.755   1.416   4.606
 2168SOL    HW2 6324   2.594   1.404   4.577
 2169SOL     OW 6325   2.784   0.503   4.623
 2169SOL    HW1 6326   2.759   0.494   4.527
 2169SOL    HW2 6327   2.832   0.421   4.654
 2170SOL     OW 6328   2.401   0.064   4.236
 2170SOL    HW1 6329   2.320   0.065   4.294
 2170SOL    HW2 6330   2.404   0.147   4.181
 2171SOL     OW 6331   3.296   1.188   3.765
 2171SOL    HW1 6332   3.328   1.112   3.822
 2171SOL    HW2 6333   3.204   1.215   3.795
 2172SOL     OW 6334   2.159   0.035   3.895
 2172SOL    HW1 6335   2.208   0.119   3.874
 2172SOL    HW2 6336   2.221  -0.030   3.940
 2173SOL     OW 6337   2.797   0.236   4.204
 2173SOL    HW1 6338   2.749   0.277   4.126
 2173SOL    HW2 6339   2.896   0.234   4.185
 2174SOL     OW 6340   3.089   1.570   4.517
 2174SOL    HW1 6341   3.110   1.644   4.452
 2174SOL    HW2 6342   3.157   1.570   4.590
 2175SOL     OW 6343   2.321   1.152   4.465
 2175SOL    HW1 6344   2.250   1.125   4.530
 2175SOL    HW2 6345   2.295   1.124   4.372
 2176SOL     OW 6346   3.133   1.797   4.315
 2176SOL    HW1 6347   3.177   1.861   4.251
 2176SOL    HW2 6348   3.083   1.849   4.385
 2177SOL     OW 6349   2.894   0.549   3.740
 2177SOL    HW1 6350   2.853   0.631   3.701
 2177SOL    HW2 6351   2.958   0.575   3.813
 2178SOL     OW 6352   2.423   0.222   4.871
 2178SOL    HW1 6353   2.461   0.138   4.908
 2178SOL    HW2 6354   2.335   0.241   4.915
 2179SOL     OW 6355   2.728   0.454   4.366
 2179SOL    HW1 6356   2.696   0.526   4.304
 2179SOL    HW2 6357   2.752   0.373   4.313
 2180SOL     OW 6358   2.879   0.039   4.477
 2180SOL    HW1 6359   2.807   0.044   4.408
 2180SOL    HW2 6360   2.855  -0.030   4.546
 2181SOL     OW 6361   3.291   1.173   4.591
 2181SOL    HW1 6362   3.236   1.089   4.584
 2181SOL    HW2 6363   3.317   1.202   4.499
 2182SOL     OW 6364   3.328   0.590   4.716
 2182SOL    HW1 6365   3.298   0.495   4.723
 2182SOL    HW2 6366   3.401   0.606   4.782
 2183SOL     OW 6367   3.719   0.833   4.101
 2183SOL    HW1 6368   3.761   0.769   4.165
 2183SOL    HW2 6369   3.681   0.782   4.023
 2184SOL     OW 6370   2.350   1.385   3.898
 2184SOL    HW1 6371   2.263   1.370   3.945
 2184SOL    HW2 6372   2.333   1.411   3.803
 2185SOL     OW 6373   3.526   1.280   4.381
 2185SOL    HW1 6374   3.625   1.288   4.395
 2185SOL    HW2 6375   3.481   1.364   4.412
 2186SOL     OW 6376   3.252   0.575   3.802
 2186SOL    HW1 6377   3.198   0.554   3.883
 2186SOL    HW2 6378   3.343   0.534   3.811
 2187SOL     OW 6379   2.389   0.256   4.052
 2187SOL    HW1 6380   2.416   0.197   3.977
 2187SOL    HW2 6381   2.389   0.351   4.021
 2188SOL     OW 6382   2.973   1.195   4.824
 2188SOL    HW1 6383   2.933   1.239   4.905
 2188SOL    HW2 6384   2.932   1.232   4.741
 2189SOL     OW 6385   3.500   1.099   4.803
 2189SOL    HW1 6386   3.505   1.180   4.862
 2189SOL    HW2 6387   3.414   1.101   4.752
 2190SOL     OW 6388   2.567   1.050   4.092
 2190SOL    HW1 6389   2.553   1.057   4.191
 2190SOL    HW2 6390   2.651   0.999   4.074
 2191SOL     OW 6391   2.272   0.813   4.975
 2191SOL    HW1 6392   2.358   0.825   5.025
 2191SOL    HW2 6393   2.230   0.726   5.002
 2192SOL     OW 6394   3.136   0.386   4.986
 2192SOL    HW1 6395   3.157   0.460   5.050
 2192SOL    HW2 6396   3.047   0.403   4.943
 2193SOL     OW 6397   2.229   1.100   4.225
 2193SOL    HW1 6398   2.222   1.183   4.169
 2193SOL    HW2 6399   2.233   1.020   4.165
 2194SOL     OW 6400   2.428   0.537   4.589
 2194SOL    HW1 6401   2.440   0.603   4.515
 2194SOL    HW2 6402   2.474   0.571   4.672
 2195SOL     OW 6403   3.114   1.348   4.112
 2195SOL    HW1 6404   3.164   1.425   4.152
 2195SOL    HW2 6405   3.019   1.350   4.144
 2196SOL     OW 6406   3.134   1.445   4.866
 2196SOL    HW1 6407   3.181   1.458   4.953
 2196SOL    HW2 6408   3.068   1.371   4.875
 2197SOL     OW 6409   3.444   0.639   4.196
 2197SOL    HW1 6410   3.413   0.700   4.269
 2197SOL    HW2 6411   3.494   0.691   4.127
 2198SOL     OW 6412   2.216   1.510   5.053
 2198SOL    HW1 6413   2.195   1.466   4.966
 2198SOL    HW2 6414   2.313   1.536   5.056
 2199SOL     OW 6415   2.435   0.870   4.753
 2199SOL    HW1 6416   2.479   0.959   4.744
 2199SOL    HW2 6417   2.372   0.870   4.830
 2200SOL     OW 6418   3.222   0.862   4.769
 2200SOL    HW1 6419   3.147   0.862   4.703
 2200SOL    HW2 6420   3.259   0.770   4.778
 2201SOL     OW 6421   3.071   0.525   3.999
 2201SOL    HW1 6422   3.084   0.441   4.053
 2201SOL    HW2 6423   3.042   0.599   4.059
 2202SOL     OW 6424   2.169   0.213   4.955
 2202SOL    HW1 6425   2.146   0.250   5.045
 2202SOL    HW2 6426   2.139   0.118   4.949
 2203SOL     OW 6427   1.899   1.310   5.006
 2203SOL    HW1 6428   1.952   1.261   5.074
 2203SOL    HW2 6429   1.921   1.408   5.011
 2204SOL     OW 6430   2.594   0.634   4.788
 2204SOL    HW1 6431   2.653   0.608   4.712
 2204SOL    HW2 6432   2.566   0.730   4.777
 2205SOL     OW 6433   2.169   0.063   4.342
 2205SOL    HW1 6434   2.158   0.157   4.375
 2205SOL    HW2 6435   2.164   0.000   4.419
 2206SOL     OW 6436   3.484   0.367   4.098
 2206SOL    HW1 6437   3.486   0.291   4.162
 2206SOL    HW2 6438   3.436   0.444   4.138
 2207SOL     OW 6439   2.885   0.766   4.690
 2207SOL    HW1 6440   2.900   0.787   4.786
 2207SOL    HW2 6441   2.855   0.671   4.681
 2208SOL     OW 6442   3.402   0.274   3.849
 2208SOL    HW1 6443   3.341   0.199   3.872
 2208SOL    HW2 6444   3.424   0.326   3.932
 2209SOL     OW 6445   3.165   0.838   3.766
 2209SOL    HW1 6446   3.199   0.745   3.781
 2209SOL    HW2 6447   3.183   0.865   3.671
 2210SOL     OW 6448   2.930   1.333   4.573
 2210SOL    HW1 6449   2.937   1.249   4.518
 2210SOL    HW2 6450   2.992   1.402   4.537
 2211SOL     OW 6451   2.181   0.810   4.673
 2211SOL    HW1 6452   2.274   0.846   4.678
 2211SOL    HW2 6453   2.175   0.725   4.725
 2212SOL     OW 6454   2.201   0.509   4.730
 2212SOL    HW1 6455   2.149   0.426   4.713
 2212SOL    HW2 6456   2.278   0.514   4.666
 2213SOL     OW 6457   3.022   0.207   5.201
 2213SOL    HW1 6458   3.022   0.271   5.278
 2213SOL    HW2 6459   3.050   0.255   5.118
 2214SOL     OW 6460   1.870   1.326   3.924
 2214SOL    HW1 6461   1.777   1.347   3.893
 2214SOL    HW2 6462   1.880   1.227   3.937
 2215SOL     OW 6463   1.950   1.801   4.651
 2215SOL    HW1 6464   1.908   1.715   4.624
 2215SOL    HW2 6465   2.044   1.804   4.617
 2216SOL     OW 6466   2.366   1.568   4.634
 2216SOL    HW1 6467   2.432   1.642   4.643
 2216SOL    HW2 6468   2.410   1.489   4.592
 2217SOL     OW 6469   2.864   0.796   4.962
 2217SOL    HW1 6470   2.905   0.764   5.048
 2217SOL    HW2 6471   2.768   0.769   4.959
 2218SOL     OW 6472   1.902   0.544   4.838
 2218SOL    HW1 6473   1.987   0.511   4.797
 2218SOL    HW2 6474   1.915   0.559   4.936
 2219SOL     OW 6475   2.677   0.572   4.049
 2219SOL    HW1 6476   2.684   0.483   4.003
 2219SOL    HW2 6477   2.583   0.606   4.041
 2220SOL     OW 6478   3.519   0.604   4.930
 2220SOL    HW1 6479   3.481   0.535   4.992
 2220SOL    HW2 6480   3.601   0.568   4.886
 2221SOL     OW 6481   2.533   0.464   4.993
 2221SOL    HW1 6482   2.499   0.375   4.963
 2221SOL    HW2 6483   2.559   0.518   4.913
 2222SOL     OW 6484   2.792   1.678   5.189
 2222SOL    HW1 6485   2.768   1.660   5.094
 2222SOL    HW2 6486   2.822   1.772   5.199
 2223SOL     OW 6487   2.335   0.500   3.915
 2223SOL    HW1 6488   2.396   0.580   3.919
 2223SOL    HW2 6489   2.240   0.531   3.922
 2224SOL     OW 6490   3.209   1.059   4.958
 2224SOL    HW1 6491   3.233   0.996   4.884
 2224SOL    HW2 6492   3.119   1.099   4.940
 2225SOL     OW 6493   3.164   0.855   4.033
 2225SOL    HW1 6494   3.078   0.824   4.075
 2225SOL    HW2 6495   3.160   0.841   3.934
 2226SOL     OW 6496   3.621   1.747   4.878
 2226SOL    HW1 6497   3.682   1.777   4.805
 2226SOL    HW2 6498   3.583   1.658   4.856
 2227SOL     OW 6499   3.114   1.731   4.852
 2227SOL    HW1 6500   3.198   1.736   4.798
 2227SOL    HW2 6501   3.091   1.635   4.870
 2228SOL     OW 6502   1.945   1.258   4.746
 2228SOL    HW1 6503   1.940   1.257   4.846
 2228SOL    HW2 6504   1.862   1.217   4.708
 2229SOL     OW 6505   3.588   0.135   4.247
 2229SOL    HW1 6506   3.661   0.118   4.180
 2229SOL    HW2 6507   3.557   0.048   4.285
 2230SOL     OW 6508   3.250   1.573   4.201
 2230SOL    HW1 6509   3.317   1.585   4.127
 2230SOL    HW2 6510   3.210   1.662   4.224
 2231SOL     OW 6511   3.142   0.927   4.396
 2231SOL    HW1 6512   3.202   0.846   4.398
 2231SOL    HW2 6513   3.182   0.996   4.336
 2232SOL     OW 6514   2.534   1.616   3.878
 2232SOL    HW1 6515   2.543   1.626   3.779
 2232SOL    HW2 6516   2.494   1.527   3.899
 2233SOL     OW 6517   3.512   1.720   5.118
 2233SOL    HW1 6518   3.565   1.730   5.034
 2233SOL    HW2 6519   3.485   1.810   5.152
 2234SOL     OW 6520   3.703   0.175   4.687
 2234SOL    HW1 6521   3.742   0.090   4.651
 2234SOL    HW2 6522   3.605   0.177   4.668
 2235SOL     OW 6523   2.125   0.326   4.444
 2235SOL    HW1 6524   2.046   0.377   4.410
 2235SOL    HW2 6525   2.116   0.311   4.542
 2236SOL     OW 6526   3.056   1.612   3.755
 2236SOL    HW1 6527   3.062   1.519   3.792
 2236SOL    HW2 6528   2.997   1.612   3.675
 2237SOL     OW 6529   2.684   1.002   5.096
 2237SOL    HW1 6530   2.724   1.001   5.004
 2237SOL    HW2 6531   2.694   1.094   5.136
 2238SOL     OW 6532   2.778   0.910   4.015
 2238SOL    HW1 6533   2.841   0.948   3.947
 2238SOL    HW2 6534   2.818   0.827   4.054
 2239SOL     OW 6535   3.366   1.607   3.768
 2239SOL    HW1 6536   3.274   1.644   3.775
 2239SOL    HW2 6537   3.404   1.627   3.678
 2240SOL     OW 6538   2.901   1.098   4.420
 2240SOL    HW1 6539   2.831   1.051   4.474
 2240SOL    HW2 6540   2.960   1.030   4.377
 2241SOL     OW 6541   2.876   0.236   4.695
 2241SOL    HW1 6542   2.868   0.200   4.602
 2241SOL    HW2 6543   2.874   0.160   4.760
 2242SOL     OW 6544   2.452   1.487   4.215
 2242SOL    HW1 6545   2.494   1.429   4.145
 2242SOL    HW2 6546   2.408   1.566   4.171
 2243SOL     OW 6547   3.571   0.385   5.105
 2243SOL    HW1 6548   3.644   0.454   5.109
 2243SOL    HW2 6549   3.599   0.310   5.046
 2244SOL     OW 6550   2.117   1.348   4.014
 2244SOL    HW1 6551   2.021   1.349   3.987
 2244SOL    HW2 6552   2.129   1.401   4.098
 2245SOL     OW 6553   1.937   0.345   3.757
 2245SOL    HW1 6554   1.845   0.317   3.728
 2245SOL    HW2 6555   1.968   0.422   3.701
 2246SOL     OW 6556   1.934   0.166   4.042
 2246SOL    HW1 6557   1.917   0.249   3.988
 2246SOL    HW2 6558   2.024   0.129   4.020
 2247SOL     OW 6559   3.045   1.335   3.843
 2247SOL    HW1 6560   2.946   1.324   3.845
 2247SOL    HW2 6561   3.079   1.350   3.936
 2248SOL     OW 6562   3.355   1.767   4.683
 2248SOL    HW1 6563   3.388   1.831   4.614
 2248SOL    HW2 6564   3.421   1.761   4.758
 2249SOL     OW 6565   3.312   1.220   5.357
 2249SOL    HW1 6566   3.303   1.210   5.456
 2249SOL    HW2 6567   3.408   1.213   5.331
 2250SOL     OW 6568   3.536   0.883   4.978
 2250SOL    HW1 6569   3.509   0.794   4.941
 2250SOL    HW2 6570   3.537   0.951   4.905
 2251SOL     OW 6571   3.087   0.325   4.173
 2251SOL    HW1 6572   3.152   0.251   4.162
 2251SOL    HW2 6573   3.107   0.375   4.257
 2252SOL     OW 6574   2.456   0.745   4.376
 2252SOL    HW1 6575   2.506   0.830   4.357
 2252SOL    HW2 6576   2.368   0.747   4.328
 2253SOL     OW 6577   3.592   0.934   5.241
 2253SOL    HW1 6578   3.630   1.025   5.256
 2253SOL    HW2 6579   3.584   0.917   5.142
 2254SOL     OW 6580   2.721   1.374   3.740
 2254SOL    HW1 6581   2.675   1.389   3.828
 2254SOL    HW2 6582   2.765   1.459   3.710
 2255SOL     OW 6583   2.523   1.790   4.677
 2255SOL    HW1 6584   2.477   1.878   4.664
 2255SOL    HW2 6585   2.622   1.802   4.670
 2256SOL     OW 6586   2.721   0.956   4.585
 2256SOL    HW1 6587   2.775   0.887   4.633
 2256SOL    HW2 6588   2.689   1.025   4.651
 2257SOL     OW 6589   2.945   0.984   3.811
 2257SOL    HW1 6590   2.922   1.037   3.729
 2257SOL    HW2 6591   3.026   0.928   3.792
 2258SOL     OW 6592   3.723   1.569   4.575
 2258SOL    HW1 6593   3.652   1.557   4.505
 2258SOL    HW2 6594   3.724   1.490   4.635
 2259SOL     OW 6595   1.941   1.240   4.377
 2259SOL    HW1 6596   1.940   1.193   4.465
 2259SOL    HW2 6597   2.023   1.212   4.326
 2260SOL     OW 6598   3.686   0.192   4.951
 2260SOL    HW1 6599   3.682   0.102   4.995
 2260SOL    HW2 6600   3.689   0.181   4.852
 2261SOL     OW 6601   2.290   0.424   4.244
 2261SOL    HW1 6602   2.320   0.352   4.182
 2261SOL    HW2 6603   2.251   0.384   4.327
 2262SOL     OW 6604   3.567   1.487   4.828
 2262SOL    HW1 6605   3.474   1.462   4.801
 2262SOL    HW2 6606   3.593   1.437   4.910
 2263SOL     OW 6607   2.674   1.586   4.411
 2263SOL    HW1 6608   2.706   1.596   4.317
 2263SOL    HW2 6609   2.595   1.524   4.413
 2264SOL     OW 6610   3.286   0.214   4.836
 2264SOL    HW1 6611   3.338   0.149   4.891
 2264SOL    HW2 6612   3.237   0.277   4.897
 2265SOL     OW 6613   2.863   0.034   4.878
 2265SOL    HW1 6614   2.800  -0.038   4.847
 2265SOL    HW2 6615   2.956  -0.002   4.878
 2266SOL     OW 6616   2.632   1.330   4.025
 2266SOL    HW1 6617   2.586   1.243   4.042
 2266SOL    HW2 6618   2.723   1.327   4.066
 2267SOL     OW 6619   3.214   0.052   3.892
 2267SOL    HW1 6620   3.249   0.011   3.808
 2267SOL    HW2 6621   3.124   0.014   3.912
 2268SOL     OW 6622   3.162   0.453   4.415
 2268SOL    HW1 6623   3.103   0.533   4.419
 2268SOL    HW2 6624   3.177   0.418   4.508
 2269SOL     OW 6625   3.455   0.221   4.606
 2269SOL    HW1 6626   3.371   0.220   4.660
 2269SOL    HW2 6627   3.457   0.304   4.550
 2270SOL     OW 6628   1.901   1.077   4.024
 2270SOL    HW1 6629   2.000   1.066   4.015
 2270SOL    HW2 6630   1.861   0.991   4.056
 2271SOL     OW 6631   2.737   1.646   4.061
 2271SOL    HW1 6632   2.660   1.611   4.007
 2271SOL    HW2 6633   2.705   1.717   4.123
 2272SOL     OW 6634   2.092   2.490   0.113
 2272SOL    HW1 6635   1.999   2.488   0.150
 2272SOL    HW2 6636   2.093   2.451   0.021
 2273SOL     OW 6637   2.087   2.137   0.996
 2273SOL    HW1 6638   2.122   2.120   1.088
 2273SOL    HW2 6639   1.999   2.092   0.984
 2274SOL     OW 6640   1.881   2.230   0.647
 2274SOL    HW1 6641   1.799   2.273   0.686
 2274SOL    HW2 6642   1.853   2.157   0.584
 2275SOL     OW 6643   2.431   3.137   1.165
 2275SOL    HW1 6644   2.338   3.130   1.128
 2275SOL    HW2 6645   2.442   3.226   1.209
 2276SOL     OW 6646   3.417   3.373   0.703
 2276SOL    HW1 6647   3.360   3.357   0.784
 2276SOL    HW2 6648   3.358   3.383   0.623
 2277SOL     OW 6649   2.997   2.565   0.717
 2277SOL    HW1 6650   3.054   2.643   0.692
 2277SOL    HW2 6651   2.937   2.591   0.793
 2278SOL     OW 6652   3.617   2.469   0.231
 2278SOL    HW1 6653   3.605   2.456   0.132
 2278SOL    HW2 6654   3.587   2.388   0.280
 2279SOL     OW 6655   2.630   3.006   1.023
 2279SOL    HW1 6656   2.552   3.023   1.083
 2279SOL    HW2 6657   2.664   3.093   0.987
 2280SOL     OW 6658   2.712   2.660   1.823
 2280SOL    HW1 6659   2.708   2.736   1.888
 2280SOL    HW2 6660   2.734   2.696   1.732
 2281SOL     OW 6661   2.547   2.874   0.665
 2281SOL    HW1 6662   2.616   2.858   0.735
 2281SOL    HW2 6663   2.474   2.931   0.703
 2282SOL     OW 6664   2.548   3.023   1.803
 2282SOL    HW1 6665   2.608   3.102   1.817
 2282SOL    HW2 6666   2.462   3.054   1.762
 2283SOL     OW 6667   2.197   3.297   1.061
 2283SOL    HW1 6668   2.119   3.266   1.008
 2283SOL    HW2 6669   2.255   3.355   1.004
 2284SOL     OW 6670   3.322   3.367   1.339
 2284SOL    HW1 6671   3.346   3.461   1.365
 2284SOL    HW2 6672   3.306   3.313   1.421
 2285SOL     OW 6673   2.300   2.254   1.499
 2285SOL    HW1 6674   2.382   2.198   1.508
 2285SOL    HW2 6675   2.219   2.196   1.503
 2286SOL     OW 6676   3.465   2.309   0.737
 2286SOL    HW1 6677   3.391   2.355   0.687
 2286SOL    HW2 6678   3.516   2.377   0.790
 2287SOL     OW 6679   2.093   3.575   0.483
 2287SOL    HW1 6680   2.127   3.652   0.537
 2287SOL    HW2 6681   2.137   3.575   0.393
 2288SOL     OW 6682   2.989   3.203   1.690
 2288SOL    HW1 6683   3.036   3.203   1.778
 2288SOL    HW2 6684   2.941   3.116   1.679
 2289SOL     OW 6685   2.092   3.296   0.538
 2289SOL    HW1 6686   2.066   3.392   0.538
 2289SOL    HW2 6687   2.021   3.242   0.583
 2290SOL     OW 6688   2.102   2.953   0.886
 2290SOL    HW1 6689   2.116   2.869   0.938
 2290SOL    HW2 6690   2.047   3.017   0.941
 2291SOL     OW 6691   2.482   3.648   1.439
 2291SOL    HW1 6692   2.390   3.631   1.474
 2291SOL    HW2 6693   2.510   3.740   1.465
 2292SOL     OW 6694   2.468   2.826   0.123
 2292SOL    HW1 6695   2.475   2.910   0.069
 2292SOL    HW2 6696   2.514   2.839   0.211
 2293SOL     OW 6697   3.456   1.976   1.480
 2293SOL    HW1 6698   3.438   2.043   1.408
 2293SOL    HW2 6699   3.453   2.022   1.569
 2294SOL     OW 6700   1.984   2.505   0.563
 2294SOL    HW1 6701   1.939   2.417   0.580
 2294SOL    HW2 6702   1.983   2.559   0.647
 2295SOL     OW 6703   3.704   3.629   0.359
 2295SOL    HW1 6704   3.758   3.600   0.439
 2295SOL    HW2 6705   3.734   3.719   0.330
 2296SOL     OW 6706   1.889   3.458   0.117
 2296SOL    HW1 6707   1.870   3.362   0.138
 2296SOL    HW2 6708   1.856   3.516   0.192
 2297SOL     OW 6709   3.551   2.784   0.612
 2297SOL    HW1 6710   3.646   2.755   0.620
 2297SOL    HW2 6711   3.543   2.849   0.537
 2298SOL     OW 6712   3.503   2.970   0.432
 2298SOL    HW1 6713   3.589   2.972   0.380
 2298SOL    HW2 6714   3.517   3.017   0.520
 2299SOL     OW 6715   1.975   2.599   1.597
 2299SOL    HW1 6716   2.063   2.586   1.642
 2299SOL    HW2 6717   1.962   2.696   1.575
 2300SOL     OW 6718   2.475   3.227   0.726
 2300SOL    HW1 6719   2.426   3.140   0.735
 2300SOL    HW2 6720   2.452   3.270   0.639
 2301SOL     OW 6721   3.155   3.090   1.423
 2301SOL    HW1 6722   3.192   3.017   1.365
 2301SOL    HW2 6723   3.207   3.095   1.508
 2302SOL     OW 6724   2.671   1.866   0.502
 2302SOL    HW1 6725   2.711   1.957   0.493
 2302SOL    HW2 6726   2.571   1.874   0.508
 2303SOL     OW 6727   2.059   2.838   1.264
 2303SOL    HW1 6728   2.148   2.793   1.250
 2303SOL    HW2 6729   1.986   2.773   1.245
 2304SOL     OW 6730   3.387   2.861   0.190
 2304SOL    HW1 6731   3.324   2.785   0.203
 2304SOL    HW2 6732   3.435   2.879   0.276
 2305SOL     OW 6733   3.049   3.654   1.616
 2305SOL    HW1 6734   3.073   3.714   1.540
 2305SOL    HW2 6735   3.056   3.559   1.586
 2306SOL     OW 6736   2.179   2.113   1.801
 2306SOL    HW1 6737   2.250   2.184   1.807
 2306SOL    HW2 6738   2.091   2.152   1.829
 2307SOL     OW 6739   3.328   3.279   0.953
 2307SOL    HW1 6740   3.269   3.285   1.033
 2307SOL    HW2 6741   3.313   3.191   0.907
 2308SOL     OW 6742   3.529   3.576   0.572
 2308SOL    HW1 6743   3.488   3.553   0.484
 2308SOL    HW2 6744   3.511   3.502   0.637
 2309SOL     OW 6745   2.460   2.591   0.270
 2309SOL    HW1 6746   2.484   2.660   0.202
 2309SOL    HW2 6747   2.382   2.624   0.324
 2310SOL     OW 6748   3.143   2.207   0.944
 2310SOL    HW1 6749   3.057   2.157   0.931
 2310SOL    HW2 6750   3.205   2.153   1.000
 2311SOL     OW 6751   3.438   3.524   0.307
 2311SOL    HW1 6752   3.527   3.570   0.310
 2311SOL    HW2 6753   3.417   3.500   0.212
 2312SOL     OW 6754   2.669   2.467   1.465
 2312SOL    HW1 6755   2.622   2.464   1.554
 2312SOL    HW2 6756   2.618   2.412   1.399
 2313SOL     OW 6757   3.256   2.331   1.674
 2313SOL    HW1 6758   3.236   2.374   1.762
 2313SOL    HW2 6759   3.334   2.269   1.683
 2314SOL     OW 6760   2.835   2.752   1.572
 2314SOL    HW1 6761   2.881   2.668   1.543
 2314SOL    HW2 6762   2.779   2.786   1.497
 2315SOL     OW 6763   2.853   2.272   1.242
 2315SOL    HW1 6764   2.776   2.306   1.296
 2315SOL    HW2 6765   2.819   2.221   1.163
 2316SOL     OW 6766   2.903   2.563   0.429
 2316SOL    HW1 6767   2.929   2.559   0.525
 2316SOL    HW2 6768   2.818   2.512   0.415
 2317SOL     OW 6769   1.938   2.673   0.789
 2317SOL    HW1 6770   2.037   2.661   0.798
 2317SOL    HW2 6771   1.914   2.768   0.810
 2318SOL     OW 6772   1.992   3.683   1.571
 2318SOL    HW1 6773   1.982   3.668   1.670
 2318SOL    HW2 6774   1.906   3.719   1.535
 2319SOL     OW 6775   2.727   2.210   0.195
 2319SOL    HW1 6776   2.786   2.273   0.146
 2319SOL    HW2 6777   2.746   2.116   0.166
 2320SOL     OW 6778   3.581   2.447   1.831
 2320SOL    HW1 6779   3.555   2.536   1.795
 2320SOL    HW2 6780   3.579   2.379   1.758
 2321SOL     OW 6781   3.224   3.006   0.545
 2321SOL    HW1 6782   3.307   2.977   0.497
 2321SOL    HW2 6783   3.175   3.073   0.489
 2322SOL     OW 6784   2.412   2.058   0.885
 2322SOL    HW1 6785   2.407   2.053   0.985
 2322SOL    HW2 6786   2.414   2.154   0.856
 2323SOL     OW 6787   2.870   3.318   0.477
 2323SOL    HW1 6788   2.824   3.390   0.425
 2323SOL    HW2 6789   2.866   3.338   0.575
 2324SOL     OW 6790   2.213   3.663   0.853
 2324SOL    HW1 6791   2.263   3.577   0.859
 2324SOL    HW2 6792   2.278   3.740   0.850
 2325SOL     OW 6793   3.657   2.928   0.873
 2325SOL    HW1 6794   3.595   2.913   0.797
 2325SOL    HW2 6795   3.605   2.939   0.958
 2326SOL     OW 6796   3.089   3.412   1.506
 2326SOL    HW1 6797   3.095   3.335   1.570
 2326SOL    HW2 6798   3.037   3.386   1.426
 2327SOL     OW 6799   2.183   2.805   0.242
 2327SOL    HW1 6800   2.265   2.844   0.200
 2327SOL    HW2 6801   2.156   2.723   0.193
 2328SOL     OW 6802   3.320   2.597   0.728
 2328SOL    HW1 6803   3.315   2.532   0.803
 2328SOL    HW2 6804   3.400   2.656   0.741
 2329SOL     OW 6805   2.323   3.128   1.727
 2329SOL    HW1 6806   2.273   3.129   1.641
 2329SOL    HW2 6807   2.260   3.110   1.803
 2330SOL     OW 6808   2.973   3.638   0.237
 2330SOL    HW1 6809   2.913   3.576   0.287
 2330SOL    HW2 6810   3.004   3.594   0.152
 2331SOL     OW 6811   2.064   2.147   1.498
 2331SOL    HW1 6812   1.984   2.207   1.485
 2331SOL    HW2 6813   2.054   2.098   1.584
 2332SOL     OW 6814   3.494   3.239   0.081
 2332SOL    HW1 6815   3.462   3.333   0.071
 2332SOL    HW2 6816   3.418   3.176   0.069
 2333SOL     OW 6817   2.326   3.605   0.323
 2333SOL    HW1 6818   2.359   3.644   0.409
 2333SOL    HW2 6819   2.402   3.598   0.258
 2334SOL     OW 6820   3.262   1.969   0.426
 2334SOL    HW1 6821   3.238   1.932   0.336
 2334SOL    HW2 6822   3.361   1.985   0.430
 2335SOL     OW 6823   2.111   3.647   1.241
 2335SOL    HW1 6824   2.168   3.582   1.291
 2335SOL    HW2 6825   2.095   3.614   1.148
 2336SOL     OW 6826   2.802   3.560   0.904
 2336SOL    HW1 6827   2.882   3.503   0.925
 2336SOL    HW2 6828   2.753   3.520   0.827
 2337SOL     OW 6829   2.244   2.562   0.480
 2337SOL    HW1 6830   2.289   2.472   0.477
 2337SOL    HW2 6831   2.150   2.551   0.513
 2338SOL     OW 6832   3.409   2.084   1.729
 2338SOL    HW1 6833   3.404   2.121   1.821
 2338SOL    HW2 6834   3.337   2.015   1.717
 2339SOL     OW 6835   2.643   2.126   1.749
 2339SOL    HW1 6836   2.710   2.065   1.792
 2339SOL    HW2 6837   2.570   2.145   1.814
 2340SOL     OW 6838   2.750   3.376   1.195
 2340SOL    HW1 6839   2.727   3.351   1.101
 2340SOL    HW2 6840   2.811   3.307   1.234
 2341SOL     OW 6841   3.213   2.452   1.433
 2341SOL    HW1 6842   3.241   2.409   1.518
 2341SOL    HW2 6843   3.238   2.548   1.434
 2342SOL     OW 6844   2.665   3.264   0.924
 2342SOL    HW1 6845   2.755   3.278   0.882
 2342SOL    HW2 6846   2.594   3.266   0.853
 2343SOL     OW 6847   2.784   2.365   0.899
 2343SOL    HW1 6848   2.759   2.356   0.803
 2343SOL    HW2 6849   2.832   2.283   0.930
 2344SOL     OW 6850   2.401   1.926   0.512
 2344SOL    HW1 6851   2.320   1.927   0.570
 2344SOL    HW2 6852   2.404   2.009   0.457
 2345SOL     OW 6853   3.296   3.050   0.041
 2345SOL    HW1 6854   3.328   2.974   0.098
 2345SOL    HW2 6855   3.204   3.077   0.071
 2346SOL     OW 6856   2.159   1.897   0.171
 2346SOL    HW1 6857   2.208   1.981   0.150
 2346SOL    HW2 6858   2.221   1.832   0.216
 2347SOL     OW 6859   2.797   2.098   0.480
 2347SOL    HW1 6860   2.749   2.139   0.402
 2347SOL    HW2 6861   2.896   2.096   0.461
 2348SOL     OW 6862   2.938   2.545   1.464
 2348SOL    HW1 6863   2.858   2.484   1.467
 2348SOL    HW2 6864   3.019   2.492   1.440
 2349SOL     OW 6865   3.089   3.432   0.793
 2349SOL    HW1 6866   3.110   3.506   0.728
 2349SOL    HW2 6867   3.157   3.432   0.866
 2350SOL     OW 6868   2.321   3.014   0.741
 2350SOL    HW1 6869   2.250   2.987   0.806
 2350SOL    HW2 6870   2.295   2.986   0.648
 2351SOL     OW 6871   3.133   3.659   0.591
 2351SOL    HW1 6872   3.177   3.723   0.527
 2351SOL    HW2 6873   3.083   3.711   0.661
 2352SOL     OW 6874   2.894   2.411   0.016
 2352SOL    HW1 6875   2.853   2.493  -0.023
 2352SOL    HW2 6876   2.958   2.437   0.089
 2353SOL     OW 6877   1.940   2.418   1.386
 2353SOL    HW1 6878   2.032   2.417   1.345
 2353SOL    HW2 6879   1.934   2.492   1.453
 2354SOL     OW 6880   2.423   2.084   1.147
 2354SOL    HW1 6881   2.461   2.000   1.184
 2354SOL    HW2 6882   2.335   2.103   1.191
 2355SOL     OW 6883   2.728   2.316   0.642
 2355SOL    HW1 6884   2.696   2.388   0.580
 2355SOL    HW2 6885   2.752   2.235   0.589
 2356SOL     OW 6886   2.879   1.901   0.753
 2356SOL    HW1 6887   2.807   1.906   0.684
 2356SOL    HW2 6888   2.855   1.832   0.822
 2357SOL     OW 6889   3.291   3.035   0.867
 2357SOL    HW1 6890   3.236   2.951   0.860
 2357SOL    HW2 6891   3.317   3.064   0.775
 2358SOL     OW 6892   3.328   2.452   0.992
 2358SOL    HW1 6893   3.298   2.357   0.999
 2358SOL    HW2 6894   3.401   2.468   1.058
 2359SOL     OW 6895   3.719   2.695   0.377
 2359SOL    HW1 6896   3.761   2.631   0.441
 2359SOL    HW2 6897   3.681   2.644   0.299
 2360SOL     OW 6898   2.350   3.247   0.174
 2360SOL    HW1 6899   2.263   3.232   0.221
 2360SOL    HW2 6900   2.333   3.273   0.079
 2361SOL     OW 6901   3.526   3.142   0.657
 2361SOL    HW1 6902   3.625   3.150   0.671
 2361SOL    HW2 6903   3.481   3.226   0.688
 2362SOL     OW 6904   3.252   2.437   0.078
 2362SOL    HW1 6905   3.198   2.416   0.159
 2362SOL    HW2 6906   3.343   2.396   0.087
 2363SOL     OW 6907   2.389   2.118   0.328
 2363SOL    HW1 6908   2.416   2.059   0.253
 2363SOL    HW2 6909   2.389   2.213   0.297
 2364SOL     OW 6910   3.616   3.085   1.588
 2364SOL    HW1 6911   3.707   3.046   1.575
 2364SOL    HW2 6912   3.624   3.181   1.612
 2365SOL     OW 6913   2.926   3.209   1.340
 2365SOL    HW1 6914   2.846   3.186   1.395
 2365SOL    HW2 6915   3.009   3.183   1.389
 2366SOL     OW 6916   3.454   3.491   1.625
 2366SOL    HW1 6917   3.481   3.525   1.535
 2366SOL    HW2 6918   3.533   3.453   1.671
 2367SOL     OW 6919   2.973   3.057   1.100
 2367SOL    HW1 6920   2.933   3.101   1.181
 2367SOL    HW2 6921   2.932   3.094   1.017
 2368SOL     OW 6922   3.500   2.961   1.079
 2368SOL    HW1 6923   3.505   3.042   1.138
 2368SOL    HW2 6924   3.414   2.963   1.028
 2369SOL     OW 6925   2.777   1.951   1.402
 2369SOL    HW1 6926   2.802   1.931   1.307
 2369SOL    HW2 6927   2.849   2.007   1.444
 2370SOL     OW 6928   2.842   2.978   1.719
 2370SOL    HW1 6929   2.743   2.984   1.729
 2370SOL    HW2 6930   2.865   2.898   1.663
 2371SOL     OW 6931   2.567   2.912   0.368
 2371SOL    HW1 6932   2.553   2.919   0.467
 2371SOL    HW2 6933   2.651   2.861   0.350
 2372SOL     OW 6934   2.272   2.675   1.251
 2372SOL    HW1 6935   2.358   2.687   1.301
 2372SOL    HW2 6936   2.230   2.588   1.278
 2373SOL     OW 6937   3.136   2.248   1.262
 2373SOL    HW1 6938   3.157   2.322   1.326
 2373SOL    HW2 6939   3.047   2.265   1.219
 2374SOL     OW 6940   1.926   3.426   1.331
 2374SOL    HW1 6941   1.880   3.508   1.297
 2374SOL    HW2 6942   2.024   3.445   1.340
 2375SOL     OW 6943   2.229   2.962   0.501
 2375SOL    HW1 6944   2.222   3.045   0.445
 2375SOL    HW2 6945   2.233   2.882   0.441
 2376SOL     OW 6946   2.428   2.399   0.865
 2376SOL    HW1 6947   2.440   2.465   0.791
 2376SOL    HW2 6948   2.474   2.433   0.948
 2377SOL     OW 6949   3.114   3.210   0.388
 2377SOL    HW1 6950   3.164   3.287   0.428
 2377SOL    HW2 6951   3.019   3.212   0.420
 2378SOL     OW 6952   3.134   3.307   1.142
 2378SOL    HW1 6953   3.181   3.320   1.229
 2378SOL    HW2 6954   3.068   3.233   1.151
 2379SOL     OW 6955   3.444   2.501   0.472
 2379SOL    HW1 6956   3.413   2.562   0.545
 2379SOL    HW2 6957   3.494   2.553   0.403
 2380SOL     OW 6958   2.216   3.372   1.329
 2380SOL    HW1 6959   2.195   3.328   1.242
 2380SOL    HW2 6960   2.313   3.398   1.332
 2381SOL     OW 6961   2.264   2.613   1.598
 2381SOL    HW1 6962   2.332   2.668   1.551
 2381SOL    HW2 6963   2.304   2.525   1.625
 2382SOL     OW 6964   3.449   2.641   1.670
 2382SOL    HW1 6965   3.357   2.679   1.665
 2382SOL    HW2 6966   3.509   2.688   1.605
 2383SOL     OW 6967   2.875   1.967   1.770
 2383SOL    HW1 6968   2.881   2.052   1.718
 2383SOL    HW2 6969   2.907   1.891   1.713
 2384SOL     OW 6970   2.366   1.912   1.740
 2384SOL    HW1 6971   2.324   1.855   1.670
 2384SOL    HW2 6972   2.300   1.981   1.772
 2385SOL     OW 6973   2.435   2.732   1.029
 2385SOL    HW1 6974   2.479   2.821   1.020
 2385SOL    HW2 6975   2.372   2.732   1.106
 2386SOL     OW 6976   3.222   2.724   1.045
 2386SOL    HW1 6977   3.147   2.724   0.979
 2386SOL    HW2 6978   3.259   2.632   1.054
 2387SOL     OW 6979   3.071   2.387   0.275
 2387SOL    HW1 6980   3.084   2.303   0.329
 2387SOL    HW2 6981   3.042   2.461   0.335
 2388SOL     OW 6982   2.169   2.075   1.231
 2388SOL    HW1 6983   2.146   2.112   1.321
 2388SOL    HW2 6984   2.139   1.980   1.225
 2389SOL     OW 6985   1.899   3.172   1.282
 2389SOL    HW1 6986   1.952   3.123   1.350
 2389SOL    HW2 6987   1.921   3.270   1.287
 2390SOL     OW 6988   2.594   2.496   1.064
 2390SOL    HW1 6989   2.653   2.470   0.988
 2390SOL    HW2 6990   2.566   2.592   1.053
 2391SOL     OW 6991   3.590   2.797   1.854
 2391SOL    HW1 6992   3.544   2.790   1.765
 2391SOL    HW2 6993   3.528   2.841   1.920
 2392SOL     OW 6994   2.169   1.925   0.618
 2392SOL    HW1 6995   2.158   2.019   0.651
 2392SOL    HW2 6996   2.164   1.862   0.695
 2393SOL     OW 6997   3.484   2.229   0.374
 2393SOL    HW1 6998   3.486   2.153   0.438
 2393SOL    HW2 6999   3.436   2.306   0.414
 2394SOL     OW 7000   2.885   2.628   0.966
 2394SOL    HW1 7001   2.900   2.649   1.062
 2394SOL    HW2 7002   2.855   2.533   0.957
 2395SOL     OW 7003   2.842   3.435   1.700
 2395SOL    HW1 7004   2.822   3.479   1.612
 2395SOL    HW2 7005   2.881   3.344   1.684
 2396SOL     OW 7006   3.721   3.380   1.605
 2396SOL    HW1 7007   3.735   3.407   1.510
 2396SOL    HW2 7008   3.804   3.402   1.658
 2397SOL     OW 7009   3.402   2.136   0.125
 2397SOL    HW1 7010   3.341   2.061   0.148
 2397SOL    HW2 7011   3.424   2.188   0.208
 2398SOL     OW 7012   3.165   2.700   0.042
 2398SOL    HW1 7013   3.199   2.607   0.057
 2398SOL    HW2 7014   3.183   2.727  -0.053
 2399SOL     OW 7015   2.930   3.195   0.849
 2399SOL    HW1 7016   2.937   3.111   0.794
 2399SOL    HW2 7017   2.992   3.264   0.813
 2400SOL     OW 7018   2.181   2.672   0.949
 2400SOL    HW1 7019   2.274   2.708   0.954
 2400SOL    HW2 7020   2.175   2.587   1.001
 2401SOL     OW 7021   2.201   2.371   1.006
 2401SOL    HW1 7022   2.149   2.288   0.989
 2401SOL    HW2 7023   2.278   2.376   0.942
 2402SOL     OW 7024   3.000   2.242   1.678
 2402SOL    HW1 7025   2.955   2.305   1.742
 2402SOL    HW2 7026   3.093   2.273   1.661
 2403SOL     OW 7027   3.022   2.069   1.477
 2403SOL    HW1 7028   3.022   2.133   1.554
 2403SOL    HW2 7029   3.050   2.117   1.394
 2404SOL     OW 7030   1.950   3.663   0.927
 2404SOL    HW1 7031   1.908   3.577   0.900
 2404SOL    HW2 7032   2.044   3.666   0.893
 2405SOL     OW 7033   2.366   3.430   0.910
 2405SOL    HW1 7034   2.432   3.504   0.919
 2405SOL    HW2 7035   2.410   3.351   0.868
 2406SOL     OW 7036   2.864   2.658   1.238
 2406SOL    HW1 7037   2.905   2.626   1.324
 2406SOL    HW2 7038   2.768   2.631   1.235
 2407SOL     OW 7039   1.902   2.406   1.114
 2407SOL    HW1 7040   1.987   2.373   1.073
 2407SOL    HW2 7041   1.915   2.421   1.212
 2408SOL     OW 7042   2.051   2.382   1.722
 2408SOL    HW1 7043   2.110   2.342   1.652
 2408SOL    HW2 7044   1.993   2.453   1.681
 2409SOL     OW 7045   3.231   2.812   1.660
 2409SOL    HW1 7046   3.270   2.901   1.680
 2409SOL    HW2 7047   3.241   2.792   1.563
 2410SOL     OW 7048   2.677   2.434   0.325
 2410SOL    HW1 7049   2.684   2.345   0.279
 2410SOL    HW2 7050   2.583   2.468   0.317
 2411SOL     OW 7051   3.519   2.466   1.206
 2411SOL    HW1 7052   3.481   2.397   1.268
 2411SOL    HW2 7053   3.601   2.430   1.162
 2412SOL     OW 7054   2.114   3.426   1.744
 2412SOL    HW1 7055   2.084   3.483   1.820
 2412SOL    HW2 7056   2.107   3.329   1.770
 2413SOL     OW 7057   2.533   2.326   1.269
 2413SOL    HW1 7058   2.499   2.237   1.239
 2413SOL    HW2 7059   2.559   2.380   1.189
 2414SOL     OW 7060   2.792   3.540   1.465
 2414SOL    HW1 7061   2.768   3.522   1.370
 2414SOL    HW2 7062   2.822   3.634   1.475
 2415SOL     OW 7063   2.335   2.362   0.191
 2415SOL    HW1 7064   2.396   2.442   0.195
 2415SOL    HW2 7065   2.240   2.393   0.198
 2416SOL     OW 7066   2.021   2.999   1.466
 2416SOL    HW1 7067   2.043   2.938   1.542
 2416SOL    HW2 7068   2.031   2.950   1.380
 2417SOL     OW 7069   3.209   2.921   1.234
 2417SOL    HW1 7070   3.233   2.858   1.160
 2417SOL    HW2 7071   3.119   2.961   1.216
 2418SOL     OW 7072   3.164   2.717   0.309
 2418SOL    HW1 7073   3.078   2.686   0.351
 2418SOL    HW2 7074   3.160   2.703   0.210
 2419SOL     OW 7075   3.621   3.609   1.154
 2419SOL    HW1 7076   3.682   3.639   1.081
 2419SOL    HW2 7077   3.583   3.520   1.132
 2420SOL     OW 7078   3.114   3.593   1.128
 2420SOL    HW1 7079   3.198   3.598   1.074
 2420SOL    HW2 7080   3.091   3.497   1.146
 2421SOL     OW 7081   1.945   3.120   1.022
 2421SOL    HW1 7082   1.940   3.119   1.122
 2421SOL    HW2 7083   1.862   3.079   0.984
 2422SOL     OW 7084   2.550   3.524   1.716
 2422SOL    HW1 7085   2.494   3.605   1.725
 2422SOL    HW2 7086   2.602   3.528   1.630
 2423SOL     OW 7087   2.765   1.948   0.133
 2423SOL    HW1 7088   2.816   1.949   0.047
 2423SOL    HW2 7089   2.821   1.906   0.204
 2424SOL     OW 7090   3.588   1.997   0.523
 2424SOL    HW1 7091   3.661   1.980   0.456
 2424SOL    HW2 7092   3.557   1.910   0.561
 2425SOL     OW 7093   3.250   3.435   0.477
 2425SOL    HW1 7094   3.317   3.447   0.403
 2425SOL    HW2 7095   3.210   3.524   0.500
 2426SOL     OW 7096   1.992   3.656   1.851
 2426SOL    HW1 7097   1.951   3.582   1.904
 2426SOL    HW2 7098   2.056   3.707   1.909
 2427SOL     OW 7099   3.142   2.789   0.672
 2427SOL    HW1 7100   3.202   2.708   0.674
 2427SOL    HW2 7101   3.182   2.858   0.612
 2428SOL     OW 7102   2.692   3.135   1.422
 2428SOL    HW1 7103   2.687   3.168   1.517
 2428SOL    HW2 7104   2.606   3.154   1.376
 2429SOL     OW 7105   2.534   3.478   0.154
 2429SOL    HW1 7106   2.543   3.488   0.055
 2429SOL    HW2 7107   2.494   3.389   0.175
 2430SOL     OW 7108   3.512   3.582   1.394
 2430SOL    HW1 7109   3.565   3.592   1.310
 2430SOL    HW2 7110   3.485   3.672   1.428
 2431SOL     OW 7111   3.703   2.037   0.963
 2431SOL    HW1 7112   3.742   1.952   0.927
 2431SOL    HW2 7113   3.605   2.039   0.944
 2432SOL     OW 7114   2.125   2.188   0.720
 2432SOL    HW1 7115   2.046   2.239   0.686
 2432SOL    HW2 7116   2.116   2.173   0.818
 2433SOL     OW 7117   3.056   3.474   0.031
 2433SOL    HW1 7118   3.062   3.381   0.068
 2433SOL    HW2 7119   2.997   3.474  -0.049
 2434SOL     OW 7120   2.684   2.864   1.372
 2434SOL    HW1 7121   2.724   2.863   1.280
 2434SOL    HW2 7122   2.694   2.956   1.412
 2435SOL     OW 7123   2.778   2.772   0.291
 2435SOL    HW1 7124   2.841   2.810   0.223
 2435SOL    HW2 7125   2.818   2.689   0.330
 2436SOL     OW 7126   3.366   3.469   0.044
 2436SOL    HW1 7127   3.274   3.506   0.051
 2436SOL    HW2 7128   3.404   3.489  -0.046
 2437SOL     OW 7129   2.234   3.150   1.490
 2437SOL    HW1 7130   2.221   3.243   1.456
 2437SOL    HW2 7131   2.150   3.098   1.477
 2438SOL     OW 7132   3.476   3.154   1.289
 2438SOL    HW1 7133   3.536   3.157   1.369
 2438SOL    HW2 7134   3.401   3.218   1.302
 2439SOL     OW 7135   2.901   2.960   0.696
 2439SOL    HW1 7136   2.831   2.913   0.750
 2439SOL    HW2 7137   2.960   2.892   0.653
 2440SOL     OW 7138   2.876   2.098   0.971
 2440SOL    HW1 7139   2.868   2.062   0.878
 2440SOL    HW2 7140   2.874   2.022   1.036
 2441SOL     OW 7141   2.452   3.349   0.491
 2441SOL    HW1 7142   2.494   3.291   0.421
 2441SOL    HW2 7143   2.408   3.428   0.447
 2442SOL     OW 7144   3.571   2.247   1.381
 2442SOL    HW1 7145   3.644   2.316   1.385
 2442SOL    HW2 7146   3.599   2.172   1.322
 2443SOL     OW 7147   2.117   3.210   0.290
 2443SOL    HW1 7148   2.021   3.211   0.263
 2443SOL    HW2 7149   2.129   3.263   0.374
 2444SOL     OW 7150   1.967   2.875   1.726
 2444SOL    HW1 7151   1.890   2.842   1.780
 2444SOL    HW2 7152   2.052   2.845   1.768
 2445SOL     OW 7153   2.534   2.065   1.489
 2445SOL    HW1 7154   2.624   2.049   1.449
 2445SOL    HW2 7155   2.542   2.070   1.588
 2446SOL     OW 7156   3.302   2.718   1.398
 2446SOL    HW1 7157   3.245   2.770   1.335
 2446SOL    HW2 7158   3.398   2.730   1.374
 2447SOL     OW 7159   1.934   2.028   0.318
 2447SOL    HW1 7160   1.917   2.111   0.264
 2447SOL    HW2 7161   2.024   1.991   0.296
 2448SOL     OW 7162   3.045   3.197   0.119
 2448SOL    HW1 7163   2.946   3.186   0.121
 2448SOL    HW2 7164   3.079   3.212   0.212
 2449SOL     OW 7165   2.475   2.704   1.431
 2449SOL    HW1 7166   2.531   2.785   1.414
 2449SOL    HW2 7167   2.534   2.624   1.434
 2450SOL     OW 7168   3.355   3.629   0.959
 2450SOL    HW1 7169   3.388   3.693   0.890
 2450SOL    HW2 7170   3.421   3.623   1.034
 2451SOL     OW 7171   2.578   2.427   1.708
 2451SOL    HW1 7172   2.597   2.492   1.782
 2451SOL    HW2 7173   2.638   2.347   1.717
 2452SOL     OW 7174   3.312   3.082   1.633
 2452SOL    HW1 7175   3.303   3.072   1.732
 2452SOL    HW2 7176   3.408   3.075   1.607
 2453SOL     OW 7177   2.252   3.603   1.560
 2453SOL    HW1 7178   2.161   3.644   1.558
 2453SOL    HW2 7179   2.245   3.509   1.592
 2454SOL     OW 7180   3.536   2.745   1.254
 2454SOL    HW1 7181   3.509   2.656   1.217
 2454SOL    HW2 7182   3.537   2.813   1.181
 2455SOL     OW 7183   3.087   2.187   0.449
 2455SOL    HW1 7184   3.152   2.113   0.438
 2455SOL    HW2 7185   3.107   2.237   0.533
 2456SOL     OW 7186   2.456   2.607   0.652
 2456SOL    HW1 7187   2.506   2.692   0.633
 2456SOL    HW2 7188   2.368   2.609   0.604
 2457SOL     OW 7189   3.639   2.204   1.642
 2457SOL    HW1 7190   3.622   2.235   1.548
 2457SOL    HW2 7191   3.555   2.167   1.680
 2458SOL     OW 7192   3.592   2.796   1.517
 2458SOL    HW1 7193   3.630   2.887   1.532
 2458SOL    HW2 7194   3.584   2.779   1.418
 2459SOL     OW 7195   2.721   3.236   0.016
 2459SOL    HW1 7196   2.675   3.251   0.104
 2459SOL    HW2 7197   2.765   3.321  -0.014
 2460SOL     OW 7198   2.523   3.652   0.953
 2460SOL    HW1 7199   2.477   3.740   0.940
 2460SOL    HW2 7200   2.622   3.664   0.946
 2461SOL     OW 7201   2.721   2.818   0.861
 2461SOL    HW1 7202   2.775   2.749   0.909
 2461SOL    HW2 7203   2.689   2.887   0.927
 2462SOL     OW 7204   2.945   2.846   0.087
 2462SOL    HW1 7205   2.922   2.899   0.005
 2462SOL    HW2 7206   3.026   2.790   0.068
 2463SOL     OW 7207   3.723   3.431   0.851
 2463SOL    HW1 7208   3.652   3.419   0.781
 2463SOL    HW2 7209   3.724   3.352   0.911
 2464SOL     OW 7210   2.083   3.176   1.844
 2464SOL    HW1 7211   2.018   3.103   1.823
 2464SOL    HW2 7212   2.087   3.190   1.942
 2465SOL     OW 7213   1.941   3.102   0.653
 2465SOL    HW1 7214   1.940   3.055   0.741
 2465SOL    HW2 7215   2.023   3.074   0.602
 2466SOL     OW 7216   2.534   3.253   1.624
 2466SOL    HW1 7217   2.456   3.203   1.662
 2466SOL    HW2 7218   2.531   3.348   1.655
 2467SOL     OW 7219   3.686   2.054   1.227
 2467SOL    HW1 7220   3.682   1.964   1.271
 2467SOL    HW2 7221   3.689   2.043   1.128
 2468SOL     OW 7222   2.290   2.286   0.520
 2468SOL    HW1 7223   2.320   2.214   0.458
 2468SOL    HW2 7224   2.251   2.246   0.603
 2469SOL     OW 7225   3.567   3.349   1.104
 2469SOL    HW1 7226   3.474   3.324   1.077
 2469SOL    HW2 7227   3.593   3.299   1.186
 2470SOL     OW 7228   2.179   2.409   1.280
 2470SOL    HW1 7229   2.217   2.350   1.352
 2470SOL    HW2 7230   2.219   2.383   1.192
 2471SOL     OW 7231   2.674   3.448   0.687
 2471SOL    HW1 7232   2.706   3.458   0.593
 2471SOL    HW2 7233   2.595   3.386   0.689
 2472SOL     OW 7234   3.286   2.076   1.112
 2472SOL    HW1 7235   3.338   2.011   1.167
 2472SOL    HW2 7236   3.237   2.139   1.173
 2473SOL     OW 7237   2.863   1.896   1.154
 2473SOL    HW1 7238   2.800   1.824   1.123
 2473SOL    HW2 7239   2.956   1.860   1.154
 2474SOL     OW 7240   2.632   3.192   0.301
 2474SOL    HW1 7241   2.586   3.105   0.318
 2474SOL    HW2 7242   2.723   3.189   0.342
 2475SOL     OW 7243   2.480   3.429   1.284
 2475SOL    HW1 7244   2.475   3.511   1.341
 2475SOL    HW2 7245   2.569   3.426   1.239
 2476SOL     OW 7246   3.214   1.914   0.168
 2476SOL    HW1 7247   3.249   1.873   0.084
 2476SOL    HW2 7248   3.124   1.876   0.188
 2477SOL     OW 7249   3.162   2.315   0.691
 2477SOL    HW1 7250   3.103   2.395   0.695
 2477SOL    HW2 7251   3.177   2.280   0.784
 2478SOL     OW 7252   3.455   2.083   0.882
 2478SOL    HW1 7253   3.371   2.082   0.936
 2478SOL    HW2 7254   3.457   2.166   0.826
 2479SOL     OW 7255   1.901   2.939   0.300
 2479SOL    HW1 7256   2.000   2.928   0.291
 2479SOL    HW2 7257   1.861   2.853   0.332
 2480SOL     OW 7258   2.737   3.508   0.337
 2480SOL    HW1 7259   2.660   3.473   0.283
 2480SOL    HW2 7260   2.705   3.579   0.399
 2481SOL     OW 7261   2.092   2.490   1.975
 2481SOL    HW1 7262   1.999   2.488   2.012
 2481SOL    HW2 7263   2.093   2.451   1.883
 2482SOL     OW 7264   1.881   2.230   2.509
 2482SOL    HW1 7265   1.799   2.273   2.548
 2482SOL    HW2 7266   1.853   2.157   2.446
 2483SOL     OW 7267   2.431   3.137   3.027
 2483SOL    HW1 7268   2.338   3.130   2.990
 2483SOL    HW2 7269   2.442   3.226   3.071
 2484SOL     OW 7270   3.417   3.373   2.565
 2484SOL    HW1 7271   3.360   3.357   2.646
 2484SOL    HW2 7272   3.358   3.383   2.485
 2485SOL     OW 7273   2.630   3.006   2.885
 2485SOL    HW1 7274   2.552   3.023   2.945
 2485SOL    HW2 7275   2.664   3.093   2.849
 2486SOL     OW 7276   2.712   2.660   3.685
 2486SOL    HW1 7277   2.708   2.736   3.750
 2486SOL    HW2 7278   2.734   2.696   3.594
 2487SOL     OW 7279   2.548   3.023   3.665
 2487SOL    HW1 7280   2.608   3.102   3.679
 2487SOL    HW2 7281   2.462   3.054   3.624
 2488SOL     OW 7282   2.197   3.297   2.923
 2488SOL    HW1 7283   2.119   3.266   2.870
 2488SOL    HW2 7284   2.255   3.355   2.866
 2489SOL     OW 7285   3.322   3.367   3.201
 2489SOL    HW1 7286   3.346   3.461   3.227
 2489SOL    HW2 7287   3.306   3.313   3.283
 2490SOL     OW 7288   2.300   2.254   3.361
 2490SOL    HW1 7289   2.382   2.198   3.370
 2490SOL    HW2 7290   2.219   2.196   3.365
 2491SOL     OW 7291   2.093   3.575   2.345
 2491SOL    HW1 7292   2.127   3.652   2.399
 2491SOL    HW2 7293   2.137   3.575   2.255
 2492SOL     OW 7294   2.989   3.203   3.552
 2492SOL    HW1 7295   3.036   3.203   3.640
 2492SOL    HW2 7296   2.941   3.116   3.541
 2493SOL     OW 7297   2.092   3.296   2.400
 2493SOL    HW1 7298   2.066   3.392   2.400
 2493SOL    HW2 7299   2.021   3.242   2.445
 2494SOL     OW 7300   2.482   3.648   3.301
 2494SOL    HW1 7301   2.390   3.631   3.336
 2494SOL    HW2 7302   2.510   3.740   3.327
 2495SOL     OW 7303   2.468   2.826   1.985
 2495SOL    HW1 7304   2.475   2.910   1.931
 2495SOL    HW2 7305   2.514   2.839   2.073
 2496SOL     OW 7306   3.456   1.976   3.342
 2496SOL    HW1 7307   3.438   2.043   3.270
 2496SOL    HW2 7308   3.453   2.022   3.431
 2497SOL     OW 7309   3.704   3.629   2.221
 2497SOL    HW1 7310   3.758   3.600   2.301
 2497SOL    HW2 7311   3.734   3.719   2.192
 2498SOL     OW 7312   1.889   3.458   1.979
 2498SOL    HW1 7313   1.870   3.362   2.000
 2498SOL    HW2 7314   1.856   3.516   2.054
 2499SOL     OW 7315   1.975   2.599   3.459
 2499SOL    HW1 7316   2.063   2.586   3.504
 2499SOL    HW2 7317   1.962   2.696   3.437
 2500SOL     OW 7318   2.475   3.227   2.588
 2500SOL    HW1 7319   2.426   3.140   2.597
 2500SOL    HW2 7320   2.452   3.270   2.501
 2501SOL     OW 7321   3.155   3.090   3.285
 2501SOL    HW1 7322   3.192   3.017   3.227
 2501SOL    HW2 7323   3.207   3.095   3.370
 2502SOL     OW 7324   2.671   1.866   2.364
 2502SOL    HW1 7325   2.711   1.957   2.355
 2502SOL    HW2 7326   2.571   1.874   2.370
 2503SOL     OW 7327   2.059   2.838   3.126
 2503SOL    HW1 7328   2.148   2.793   3.112
 2503SOL    HW2 7329   1.986   2.773   3.107
 2504SOL     OW 7330   3.387   2.861   2.052
 2504SOL    HW1 7331   3.324   2.785   2.065
 2504SOL    HW2 7332   3.435   2.879   2.138
 2505SOL     OW 7333   3.049   3.654   3.478
 2505SOL    HW1 7334   3.073   3.714   3.402
 2505SOL    HW2 7335   3.056   3.559   3.448
 2506SOL     OW 7336   2.179   2.113   3.663
 2506SOL    HW1 7337   2.250   2.184   3.669
 2506SOL    HW2 7338   2.091   2.152   3.691
 2507SOL     OW 7339   3.328   3.279   2.815
 2507SOL    HW1 7340   3.269   3.285   2.895
 2507SOL    HW2 7341   3.313   3.191   2.769
 2508SOL     OW 7342   3.529   3.576   2.434
 2508SOL    HW1 7343   3.488   3.553   2.346
 2508SOL    HW2 7344   3.511   3.502   2.499
 2509SOL     OW 7345   3.143   2.207   2.806
 2509SOL    HW1 7346   3.057   2.157   2.793
 2509SOL    HW2 7347   3.205   2.153   2.862
 2510SOL     OW 7348   3.438   3.524   2.169
 2510SOL    HW1 7349   3.527   3.570   2.172
 2510SOL    HW2 7350   3.417   3.500   2.074
 2511SOL     OW 7351   2.669   2.467   3.327
 2511SOL    HW1 7352   2.622   2.464   3.416
 2511SOL    HW2 7353   2.618   2.412   3.261
 2512SOL     OW 7354   3.256   2.331   3.536
 2512SOL    HW1 7355   3.236   2.374   3.624
 2512SOL    HW2 7356   3.334   2.269   3.545
 2513SOL     OW 7357   2.835   2.752   3.434
 2513SOL    HW1 7358   2.881   2.668   3.405
 2513SOL    HW2 7359   2.779   2.786   3.359
 2514SOL     OW 7360   2.853   2.272   3.104
 2514SOL    HW1 7361   2.776   2.306   3.158
 2514SOL    HW2 7362   2.819   2.221   3.025
 2515SOL     OW 7363   1.992   3.683   3.433
 2515SOL    HW1 7364   1.982   3.668   3.532
 2515SOL    HW2 7365   1.906   3.719   3.397
 2516SOL     OW 7366   2.727   2.210   2.057
 2516SOL    HW1 7367   2.786   2.273   2.008
 2516SOL    HW2 7368   2.746   2.116   2.028
 2517SOL     OW 7369   3.581   2.447   3.693
 2517SOL    HW1 7370   3.555   2.536   3.657
 2517SOL    HW2 7371   3.579   2.379   3.620
 2518SOL     OW 7372   2.870   3.318   2.339
 2518SOL    HW1 7373   2.824   3.390   2.287
 2518SOL    HW2 7374   2.866   3.338   2.437
 2519SOL     OW 7375   2.213   3.663   2.715
 2519SOL    HW1 7376   2.263   3.577   2.721
 2519SOL    HW2 7377   2.278   3.740   2.712
 2520SOL     OW 7378   3.089   3.412   3.368
 2520SOL    HW1 7379   3.095   3.335   3.432
 2520SOL    HW2 7380   3.037   3.386   3.288
 2521SOL     OW 7381   2.323   3.128   3.589
 2521SOL    HW1 7382   2.273   3.129   3.503
 2521SOL    HW2 7383   2.260   3.110   3.665
 2522SOL     OW 7384   2.973   3.638   2.099
 2522SOL    HW1 7385   2.913   3.576   2.149
 2522SOL    HW2 7386   3.004   3.594   2.014
 2523SOL     OW 7387   2.064   2.147   3.360
 2523SOL    HW1 7388   1.984   2.207   3.347
 2523SOL    HW2 7389   2.054   2.098   3.446
 2524SOL     OW 7390   3.494   3.239   1.943
 2524SOL    HW1 7391   3.462   3.333   1.933
 2524SOL    HW2 7392   3.418   3.176   1.931
 2525SOL     OW 7393   2.326   3.605   2.185
 2525SOL    HW1 7394   2.359   3.644   2.271
 2525SOL    HW2 7395   2.402   3.598   2.120
 2526SOL     OW 7396   3.262   1.969   2.288
 2526SOL    HW1 7397   3.238   1.932   2.198
 2526SOL    HW2 7398   3.361   1.985   2.292
 2527SOL     OW 7399   2.111   3.647   3.103
 2527SOL    HW1 7400   2.168   3.582   3.153
 2527SOL    HW2 7401   2.095   3.614   3.010
 2528SOL     OW 7402   2.802   3.560   2.766
 2528SOL    HW1 7403   2.882   3.503   2.787
 2528SOL    HW2 7404   2.753   3.520   2.689
 2529SOL     OW 7405   3.409   2.084   3.591
 2529SOL    HW1 7406   3.404   2.121   3.683
 2529SOL    HW2 7407   3.337   2.015   3.579
 2530SOL     OW 7408   2.476   1.984   1.979
 2530SOL    HW1 7409   2.574   1.962   1.986
 2530SOL    HW2 7410   2.445   1.967   1.886
 2531SOL     OW 7411   2.643   2.126   3.611
 2531SOL    HW1 7412   2.710   2.065   3.654
 2531SOL    HW2 7413   2.570   2.145   3.676
 2532SOL     OW 7414   2.750   3.376   3.057
 2532SOL    HW1 7415   2.727   3.351   2.963
 2532SOL    HW2 7416   2.811   3.307   3.096
 2533SOL     OW 7417   3.213   2.452   3.295
 2533SOL    HW1 7418   3.241   2.409   3.380
 2533SOL    HW2 7419   3.238   2.548   3.296
 2534SOL     OW 7420   2.665   3.264   2.786
 2534SOL    HW1 7421   2.755   3.278   2.744
 2534SOL    HW2 7422   2.594   3.266   2.715
 2535SOL     OW 7423   2.784   2.365   2.761
 2535SOL    HW1 7424   2.759   2.356   2.665
 2535SOL    HW2 7425   2.832   2.283   2.792
 2536SOL     OW 7426   2.401   1.926   2.374
 2536SOL    HW1 7427   2.320   1.927   2.432
 2536SOL    HW2 7428   2.404   2.009   2.319
 2537SOL     OW 7429   3.296   3.050   1.903
 2537SOL    HW1 7430   3.328   2.974   1.960
 2537SOL    HW2 7431   3.204   3.077   1.933
 2538SOL     OW 7432   2.159   1.897   2.033
 2538SOL    HW1 7433   2.208   1.981   2.012
 2538SOL    HW2 7434   2.221   1.832   2.078
 2539SOL     OW 7435   2.938   2.545   3.326
 2539SOL    HW1 7436   2.858   2.484   3.329
 2539SOL    HW2 7437   3.019   2.492   3.302
 2540SOL     OW 7438   3.089   3.432   2.655
 2540SOL    HW1 7439   3.110   3.506   2.590
 2540SOL    HW2 7440   3.157   3.432   2.728
 2541SOL     OW 7441   2.321   3.014   2.603
 2541SOL    HW1 7442   2.250   2.987   2.668
 2541SOL    HW2 7443   2.295   2.986   2.510
 2542SOL     OW 7444   3.133   3.659   2.453
 2542SOL    HW1 7445   3.177   3.723   2.389
 2542SOL    HW2 7446   3.083   3.711   2.523
 2543SOL     OW 7447   2.894   2.411   1.878
 2543SOL    HW1 7448   2.853   2.493   1.839
 2543SOL    HW2 7449   2.958   2.437   1.951
 2544SOL     OW 7450   1.940   2.418   3.248
 2544SOL    HW1 7451   2.032   2.417   3.207
 2544SOL    HW2 7452   1.934   2.492   3.315
 2545SOL     OW 7453   2.879   1.901   2.615
 2545SOL    HW1 7454   2.807   1.906   2.546
 2545SOL    HW2 7455   2.855   1.832   2.684
 2546SOL     OW 7456   3.291   3.035   2.729
 2546SOL    HW1 7457   3.236   2.951   2.722
 2546SOL    HW2 7458   3.317   3.064   2.637
 2547SOL     OW 7459   3.328   2.452   2.854
 2547SOL    HW1 7460   3.298   2.357   2.861
 2547SOL    HW2 7461   3.401   2.468   2.920
 2548SOL     OW 7462   2.350   3.247   2.036
 2548SOL    HW1 7463   2.263   3.232   2.083
 2548SOL    HW2 7464   2.333   3.273   1.941
 2549SOL     OW 7465   3.526   3.142   2.519
 2549SOL    HW1 7466   3.625   3.150   2.533
 2549SOL    HW2 7467   3.481   3.226   2.550
 2550SOL     OW 7468   2.389   2.118   2.190
 2550SOL    HW1 7469   2.416   2.059   2.115
 2550SOL    HW2 7470   2.389   2.213   2.159
 2551SOL     OW 7471   3.616   3.085   3.450
 2551SOL    HW1 7472   3.707   3.046   3.437
 2551SOL    HW2 7473   3.624   3.181   3.474
 2552SOL     OW 7474   2.926   3.209   3.202
 2552SOL    HW1 7475   2.846   3.186   3.257
 2552SOL    HW2 7476   3.009   3.183   3.251
 2553SOL     OW 7477   3.454   3.491   3.487
 2553SOL    HW1 7478   3.481   3.525   3.397
 2553SOL    HW2 7479   3.533   3.453   3.533
 2554SOL     OW 7480   2.973   3.057   2.962
 2554SOL    HW1 7481   2.933   3.101   3.043
 2554SOL    HW2 7482   2.932   3.094   2.879
 2555SOL     OW 7483   3.500   2.961   2.941
 2555SOL    HW1 7484   3.505   3.042   3.000
 2555SOL    HW2 7485   3.414   2.963   2.890
 2556SOL     OW 7486   2.777   1.951   3.264
 2556SOL    HW1 7487   2.802   1.931   3.169
 2556SOL    HW2 7488   2.849   2.007   3.306
 2557SOL     OW 7489   2.842   2.978   3.581
 2557SOL    HW1 7490   2.743   2.984   3.591
 2557SOL    HW2 7491   2.865   2.898   3.525
 2558SOL     OW 7492   2.567   2.912   2.230
 2558SOL    HW1 7493   2.553   2.919   2.329
 2558SOL    HW2 7494   2.651   2.861   2.212
 2559SOL     OW 7495   2.272   2.675   3.113
 2559SOL    HW1 7496   2.358   2.687   3.163
 2559SOL    HW2 7497   2.230   2.588   3.140
 2560SOL     OW 7498   3.136   2.248   3.124
 2560SOL    HW1 7499   3.157   2.322   3.188
 2560SOL    HW2 7500   3.047   2.265   3.081
 2561SOL     OW 7501   1.926   3.426   3.193
 2561SOL    HW1 7502   1.880   3.508   3.159
 2561SOL    HW2 7503   2.024   3.445   3.202
 2562SOL     OW 7504   3.114   3.210   2.250
 2562SOL    HW1 7505   3.164   3.287   2.290
 2562SOL    HW2 7506   3.019   3.212   2.282
 2563SOL     OW 7507   3.134   3.307   3.004
 2563SOL    HW1 7508   3.181   3.320   3.091
 2563SOL    HW2 7509   3.068   3.233   3.013
 2564SOL     OW 7510   2.216   3.372   3.191
 2564SOL    HW1 7511   2.195   3.328   3.104
 2564SOL    HW2 7512   2.313   3.398   3.194
 2565SOL     OW 7513   2.264   2.613   3.460
 2565SOL    HW1 7514   2.332   2.668   3.413
 2565SOL    HW2 7515   2.304   2.525   3.487
 2566SOL     OW 7516   3.449   2.641   3.532
 2566SOL    HW1 7517   3.357   2.679   3.527
 2566SOL    HW2 7518   3.509   2.688   3.467
 2567SOL     OW 7519   2.875   1.967   3.632
 2567SOL    HW1 7520   2.881   2.052   3.580
 2567SOL    HW2 7521   2.907   1.891   3.575
 2568SOL     OW 7522   2.366   1.912   3.602
 2568SOL    HW1 7523   2.324   1.855   3.532
 2568SOL    HW2 7524   2.300   1.981   3.634
 2569SOL     OW 7525   2.435   2.732   2.891
 2569SOL    HW1 7526   2.479   2.821   2.882
 2569SOL    HW2 7527   2.372   2.732   2.968
 2570SOL     OW 7528   3.222   2.724   2.907
 2570SOL    HW1 7529   3.147   2.724   2.841
 2570SOL    HW2 7530   3.259   2.632   2.916
 2571SOL     OW 7531   2.169   2.075   3.093
 2571SOL    HW1 7532   2.146   2.112   3.183
 2571SOL    HW2 7533   2.139   1.980   3.087
 2572SOL     OW 7534   1.899   3.172   3.144
 2572SOL    HW1 7535   1.952   3.123   3.212
 2572SOL    HW2 7536   1.921   3.270   3.149
 2573SOL     OW 7537   3.590   2.797   3.716
 2573SOL    HW1 7538   3.544   2.790   3.627
 2573SOL    HW2 7539   3.528   2.841   3.782
 2574SOL     OW 7540   2.169   1.925   2.480
 2574SOL    HW1 7541   2.158   2.019   2.513
 2574SOL    HW2 7542   2.164   1.862   2.557
 2575SOL     OW 7543   2.842   3.435   3.562
 2575SOL    HW1 7544   2.822   3.479   3.474
 2575SOL    HW2 7545   2.881   3.344   3.546
 2576SOL     OW 7546   3.721   3.380   3.467
 2576SOL    HW1 7547   3.735   3.407   3.372
 2576SOL    HW2 7548   3.804   3.402   3.520
 2577SOL     OW 7549   2.212   2.760   3.666
 2577SOL    HW1 7550   2.288   2.804   3.714
 2577SOL    HW2 7551   2.247   2.713   3.584
 2578SOL     OW 7552   3.402   2.136   1.987
 2578SOL    HW1 7553   3.341   2.061   2.010
 2578SOL    HW2 7554   3.424   2.188   2.070
 2579SOL     OW 7555   3.165   2.700   1.904
 2579SOL    HW1 7556   3.199   2.607   1.919
 2579SOL    HW2 7557   3.183   2.727   1.809
 2580SOL     OW 7558   2.930   3.195   2.711
 2580SOL    HW1 7559   2.937   3.111   2.656
 2580SOL    HW2 7560   2.992   3.264   2.675
 2581SOL     OW 7561   3.000   2.242   3.540
 2581SOL    HW1 7562   2.955   2.305   3.604
 2581SOL    HW2 7563   3.093   2.273   3.523
 2582SOL     OW 7564   3.022   2.069   3.339
 2582SOL    HW1 7565   3.022   2.133   3.416
 2582SOL    HW2 7566   3.050   2.117   3.256
 2583SOL     OW 7567   1.870   3.188   2.062
 2583SOL    HW1 7568   1.777   3.209   2.031
 2583SOL    HW2 7569   1.880   3.089   2.075
 2584SOL     OW 7570   1.950   3.663   2.789
 2584SOL    HW1 7571   1.908   3.577   2.762
 2584SOL    HW2 7572   2.044   3.666   2.755
 2585SOL     OW 7573   2.366   3.430   2.772
 2585SOL    HW1 7574   2.432   3.504   2.781
 2585SOL    HW2 7575   2.410   3.351   2.730
 2586SOL     OW 7576   2.864   2.658   3.100
 2586SOL    HW1 7577   2.905   2.626   3.186
 2586SOL    HW2 7578   2.768   2.631   3.097
 2587SOL     OW 7579   2.051   2.382   3.584
 2587SOL    HW1 7580   2.110   2.342   3.514
 2587SOL    HW2 7581   1.993   2.453   3.543
 2588SOL     OW 7582   3.231   2.812   3.522
 2588SOL    HW1 7583   3.270   2.901   3.542
 2588SOL    HW2 7584   3.241   2.792   3.425
 2589SOL     OW 7585   2.677   2.434   2.187
 2589SOL    HW1 7586   2.684   2.345   2.141
 2589SOL    HW2 7587   2.583   2.468   2.179
 2590SOL     OW 7588   3.519   2.466   3.068
 2590SOL    HW1 7589   3.481   2.397   3.130
 2590SOL    HW2 7590   3.601   2.430   3.024
 2591SOL     OW 7591   2.114   3.426   3.606
 2591SOL    HW1 7592   2.084   3.483   3.682
 2591SOL    HW2 7593   2.107   3.329   3.632
 2592SOL     OW 7594   2.792   3.540   3.327
 2592SOL    HW1 7595   2.768   3.522   3.232
 2592SOL    HW2 7596   2.822   3.634   3.337
 2593SOL     OW 7597   2.335   2.362   2.053
 2593SOL    HW1 7598   2.396   2.442   2.057
 2593SOL    HW2 7599   2.240   2.393   2.060
 2594SOL     OW 7600   2.021   2.999   3.328
 2594SOL    HW1 7601   2.043   2.938   3.404
 2594SOL    HW2 7602   2.031   2.950   3.242
 2595SOL     OW 7603   3.209   2.921   3.096
 2595SOL    HW1 7604   3.233   2.858   3.022
 2595SOL    HW2 7605   3.119   2.961   3.078
 2596SOL     OW 7606   3.621   3.609   3.016
 2596SOL    HW1 7607   3.682   3.639   2.943
 2596SOL    HW2 7608   3.583   3.520   2.994
 2597SOL     OW 7609   3.114   3.593   2.990
 2597SOL    HW1 7610   3.198   3.598   2.936
 2597SOL    HW2 7611   3.091   3.497   3.008
 2598SOL     OW 7612   2.550   3.524   3.578
 2598SOL    HW1 7613   2.494   3.605   3.587
 2598SOL    HW2 7614   2.602   3.528   3.492
 2599SOL     OW 7615   3.588   1.997   2.385
 2599SOL    HW1 7616   3.661   1.980   2.318
 2599SOL    HW2 7617   3.557   1.910   2.423
 2600SOL     OW 7618   3.250   3.435   2.339
 2600SOL    HW1 7619   3.317   3.447   2.265
 2600SOL    HW2 7620   3.210   3.524   2.362
 2601SOL     OW 7621   1.992   3.656   3.713
 2601SOL    HW1 7622   1.951   3.582   3.766
 2601SOL    HW2 7623   2.056   3.707   3.771
 2602SOL     OW 7624   2.692   3.135   3.284
 2602SOL    HW1 7625   2.687   3.168   3.379
 2602SOL    HW2 7626   2.606   3.154   3.238
 2603SOL     OW 7627   2.534   3.478   2.016
 2603SOL    HW1 7628   2.543   3.488   1.917
 2603SOL    HW2 7629   2.494   3.389   2.037
 2604SOL     OW 7630   3.512   3.582   3.256
 2604SOL    HW1 7631   3.565   3.592   3.172
 2604SOL    HW2 7632   3.485   3.672   3.290
 2605SOL     OW 7633   3.703   2.037   2.825
 2605SOL    HW1 7634   3.742   1.952   2.789
 2605SOL    HW2 7635   3.605   2.039   2.806
 2606SOL     OW 7636   3.056   3.474   1.893
 2606SOL    HW1 7637   3.062   3.381   1.930
 2606SOL    HW2 7638   2.997   3.474   1.813
 2607SOL     OW 7639   2.684   2.864   3.234
 2607SOL    HW1 7640   2.724   2.863   3.142
 2607SOL    HW2 7641   2.694   2.956   3.274
 2608SOL     OW 7642   2.778   2.772   2.153
 2608SOL    HW1 7643   2.841   2.810   2.085
 2608SOL    HW2 7644   2.818   2.689   2.192
 2609SOL     OW 7645   3.366   3.469   1.906
 2609SOL    HW1 7646   3.274   3.506   1.913
 2609SOL    HW2 7647   3.404   3.489   1.816
 2610SOL     OW 7648   2.234   3.150   3.352
 2610SOL    HW1 7649   2.221   3.243   3.318
 2610SOL    HW2 7650   2.150   3.098   3.339
 2611SOL     OW 7651   3.476   3.154   3.151
 2611SOL    HW1 7652   3.536   3.157   3.231
 2611SOL    HW2 7653   3.401   3.218   3.164
 2612SOL     OW 7654   2.876   2.098   2.833
 2612SOL    HW1 7655   2.868   2.062   2.740
 2612SOL    HW2 7656   2.874   2.022   2.898
 2613SOL     OW 7657   2.452   3.349   2.353
 2613SOL    HW1 7658   2.494   3.291   2.283
 2613SOL    HW2 7659   2.408   3.428   2.309
 2614SOL     OW 7660   3.571   2.247   3.243
 2614SOL    HW1 7661   3.644   2.316   3.247
 2614SOL    HW2 7662   3.599   2.172   3.184
 2615SOL     OW 7663   2.117   3.210   2.152
 2615SOL    HW1 7664   2.021   3.211   2.125
 2615SOL    HW2 7665   2.129   3.263   2.236
 2616SOL     OW 7666   1.967   2.875   3.588
 2616SOL    HW1 7667   1.890   2.842   3.642
 2616SOL    HW2 7668   2.052   2.845   3.630
 2617SOL     OW 7669   2.534   2.065   3.351
 2617SOL    HW1 7670   2.624   2.049   3.311
 2617SOL    HW2 7671   2.542   2.070   3.450
 2618SOL     OW 7672   1.937   2.207   1.895
 2618SOL    HW1 7673   1.845   2.179   1.866
 2618SOL    HW2 7674   1.968   2.284   1.839
 2619SOL     OW 7675   3.302   2.718   3.260
 2619SOL    HW1 7676   3.245   2.770   3.197
 2619SOL    HW2 7677   3.398   2.730   3.236
 2620SOL     OW 7678   1.934   2.028   2.180
 2620SOL    HW1 7679   1.917   2.111   2.126
 2620SOL    HW2 7680   2.024   1.991   2.158
 2621SOL     OW 7681   3.045   3.197   1.981
 2621SOL    HW1 7682   2.946   3.186   1.983
 2621SOL    HW2 7683   3.079   3.212   2.074
 2622SOL     OW 7684   2.475   2.704   3.293
 2622SOL    HW1 7685   2.531   2.785   3.276
 2622SOL    HW2 7686   2.534   2.624   3.296
 2623SOL     OW 7687   3.355   3.629   2.821
 2623SOL    HW1 7688   3.388   3.693   2.752
 2623SOL    HW2 7689   3.421   3.623   2.896
 2624SOL     OW 7690   2.578   2.427   3.570
 2624SOL    HW1 7691   2.597   2.492   3.644
 2624SOL    HW2 7692   2.638   2.347   3.579
 2625SOL     OW 7693   3.312   3.082   3.495
 2625SOL    HW1 7694   3.303   3.072   3.594
 2625SOL    HW2 7695   3.408   3.075   3.469
 2626SOL     OW 7696   2.252   3.603   3.422
 2626SOL    HW1 7697   2.161   3.644   3.420
 2626SOL    HW2 7698   2.245   3.509   3.454
 2627SOL     OW 7699   3.536   2.745   3.116
 2627SOL    HW1 7700   3.509   2.656   3.079
 2627SOL    HW2 7701   3.537   2.813   3.043
 2628SOL     OW 7702   3.639   2.204   3.504
 2628SOL    HW1 7703   3.622   2.235   3.410
 2628SOL    HW2 7704   3.555   2.167   3.542
 2629SOL     OW 7705   3.592   2.796   3.379
 2629SOL    HW1 7706   3.630   2.887   3.394
 2629SOL    HW2 7707   3.584   2.779   3.280
 2630SOL     OW 7708   2.721   3.236   1.878
 2630SOL    HW1 7709   2.675   3.251   1.966
 2630SOL    HW2 7710   2.765   3.321   1.848
 2631SOL     OW 7711   2.523   3.652   2.815
 2631SOL    HW1 7712   2.477   3.740   2.802
 2631SOL    HW2 7713   2.622   3.664   2.808
 2632SOL     OW 7714   2.945   2.846   1.949
 2632SOL    HW1 7715   2.922   2.899   1.867
 2632SOL    HW2 7716   3.026   2.790   1.930
 2633SOL     OW 7717   3.723   3.431   2.713
 2633SOL    HW1 7718   3.652   3.419   2.643
 2633SOL    HW2 7719   3.724   3.352   2.773
 2634SOL     OW 7720   2.083   3.176   3.706
 2634SOL    HW1 7721   2.018   3.103   3.685
 2634SOL    HW2 7722   2.087   3.190   3.804
 2635SOL     OW 7723   2.534   3.253   3.486
 2635SOL    HW1 7724   2.456   3.203   3.524
 2635SOL    HW2 7725   2.531   3.348   3.517
 2636SOL     OW 7726   3.686   2.054   3.089
 2636SOL    HW1 7727   3.682   1.964   3.133
 2636SOL    HW2 7728   3.689   2.043   2.990
 2637SOL     OW 7729   3.567   3.349   2.966
 2637SOL    HW1 7730   3.474   3.324   2.939
 2637SOL    HW2 7731   3.593   3.299   3.048
 2638SOL     OW 7732   2.179   2.409   3.142
 2638SOL    HW1 7733   2.217   2.350   3.214
 2638SOL    HW2 7734   2.219   2.383   3.054
 2639SOL     OW 7735   2.674   3.448   2.549
 2639SOL    HW1 7736   2.706   3.458   2.455
 2639SOL    HW2 7737   2.595   3.386   2.551
 2640SOL     OW 7738   3.286   2.076   2.974
 2640SOL    HW1 7739   3.338   2.011   3.029
 2640SOL    HW2 7740   3.237   2.139   3.035
 2641SOL     OW 7741   2.863   1.896   3.016
 2641SOL    HW1 7742   2.800   1.824   2.985
 2641SOL    HW2 7743   2.956   1.860   3.016
 2642SOL     OW 7744   2.632   3.192   2.163
 2642SOL    HW1 7745   2.586   3.105   2.180
 2642SOL    HW2 7746   2.723   3.189   2.204
 2643SOL     OW 7747   2.480   3.429   3.146
 2643SOL    HW1 7748   2.475   3.511   3.203
 2643SOL    HW2 7749   2.569   3.426   3.101
 2644SOL     OW 7750   3.214   1.914   2.030
 2644SOL    HW1 7751   3.249   1.873   1.946
 2644SOL    HW2 7752   3.124   1.876   2.050
 2645SOL     OW 7753   3.162   2.315   2.553
 2645SOL    HW1 7754   3.103   2.395   2.557
 2645SOL    HW2 7755   3.177   2.280   2.646
 2646SOL     OW 7756   3.455   2.083   2.744
 2646SOL    HW1 7757   3.371   2.082   2.798
 2646SOL    HW2 7758   3.457   2.166   2.688
 2647SOL     OW 7759   2.737   3.508   2.199
 2647SOL    HW1 7760   2.660   3.473   2.145
 2647SOL    HW2 7761   2.705   3.579   2.261
 2648SOL     OW 7762   2.092   2.490   3.837
 2648SOL    HW1 7763   1.999   2.488   3.874
 2648SOL    HW2 7764   2.093   2.451   3.745
 2649SOL     OW 7765   2.087   2.137   4.720
 2649SOL    HW1 7766   2.122   2.120   4.812
 2649SOL    HW2 7767   1.999   2.092   4.708
 2650SOL     OW 7768   1.881   2.230   4.371
 2650SOL    HW1 7769   1.799   2.273   4.410
 2650SOL    HW2 7770   1.853   2.157   4.308
 2651SOL     OW 7771   2.431   3.137   4.889
 2651SOL    HW1 7772   2.338   3.130   4.852
 2651SOL    HW2 7773   2.442   3.226   4.933
 2652SOL     OW 7774   3.417   3.373   4.427
 2652SOL    HW1 7775   3.360   3.357   4.508
 2652SOL    HW2 7776   3.358   3.383   4.347
 2653SOL     OW 7777   2.997   2.565   4.441
 2653SOL    HW1 7778   3.054   2.643   4.416
 2653SOL    HW2 7779   2.937   2.591   4.517
 2654SOL     OW 7780   3.617   2.469   3.955
 2654SOL    HW1 7781   3.605   2.456   3.856
 2654SOL    HW2 7782   3.587   2.388   4.004
 2655SOL     OW 7783   2.630   3.006   4.747
 2655SOL    HW1 7784   2.552   3.023   4.807
 2655SOL    HW2 7785   2.664   3.093   4.711
 2656SOL     OW 7786   2.547   2.874   4.389
 2656SOL    HW1 7787   2.616   2.858   4.459
 2656SOL    HW2 7788   2.474   2.931   4.427
 2657SOL     OW 7789   2.197   3.297   4.785
 2657SOL    HW1 7790   2.119   3.266   4.732
 2657SOL    HW2 7791   2.255   3.355   4.728
 2658SOL     OW 7792   3.465   2.309   4.461
 2658SOL    HW1 7793   3.391   2.355   4.411
 2658SOL    HW2 7794   3.516   2.377   4.514
 2659SOL     OW 7795   2.093   3.575   4.207
 2659SOL    HW1 7796   2.127   3.652   4.261
 2659SOL    HW2 7797   2.137   3.575   4.117
 2660SOL     OW 7798   2.092   3.296   4.262
 2660SOL    HW1 7799   2.066   3.392   4.262
 2660SOL    HW2 7800   2.021   3.242   4.307
 2661SOL     OW 7801   2.102   2.953   4.610
 2661SOL    HW1 7802   2.116   2.869   4.662
 2661SOL    HW2 7803   2.047   3.017   4.665
 2662SOL     OW 7804   2.482   3.648   5.163
 2662SOL    HW1 7805   2.390   3.631   5.198
 2662SOL    HW2 7806   2.510   3.740   5.189
 2663SOL     OW 7807   2.468   2.826   3.847
 2663SOL    HW1 7808   2.475   2.910   3.793
 2663SOL    HW2 7809   2.514   2.839   3.935
 2664SOL     OW 7810   1.984   2.505   4.287
 2664SOL    HW1 7811   1.939   2.417   4.304
 2664SOL    HW2 7812   1.983   2.559   4.371
 2665SOL     OW 7813   3.704   3.629   4.083
 2665SOL    HW1 7814   3.758   3.600   4.163
 2665SOL    HW2 7815   3.734   3.719   4.054
 2666SOL     OW 7816   1.889   3.458   3.841
 2666SOL    HW1 7817   1.870   3.362   3.862
 2666SOL    HW2 7818   1.856   3.516   3.916
 2667SOL     OW 7819   3.551   2.784   4.336
 2667SOL    HW1 7820   3.646   2.755   4.344
 2667SOL    HW2 7821   3.543   2.849   4.261
 2668SOL     OW 7822   3.503   2.970   4.156
 2668SOL    HW1 7823   3.589   2.972   4.104
 2668SOL    HW2 7824   3.517   3.017   4.244
 2669SOL     OW 7825   2.475   3.227   4.450
 2669SOL    HW1 7826   2.426   3.140   4.459
 2669SOL    HW2 7827   2.452   3.270   4.363
 2670SOL     OW 7828   2.671   1.866   4.226
 2670SOL    HW1 7829   2.711   1.957   4.217
 2670SOL    HW2 7830   2.571   1.874   4.232
 2671SOL     OW 7831   2.059   2.838   4.988
 2671SOL    HW1 7832   2.148   2.793   4.974
 2671SOL    HW2 7833   1.986   2.773   4.969
 2672SOL     OW 7834   3.387   2.861   3.914
 2672SOL    HW1 7835   3.324   2.785   3.927
 2672SOL    HW2 7836   3.435   2.879   4.000
 2673SOL     OW 7837   3.328   3.279   4.677
 2673SOL    HW1 7838   3.269   3.285   4.757
 2673SOL    HW2 7839   3.313   3.191   4.631
 2674SOL     OW 7840   3.529   3.576   4.296
 2674SOL    HW1 7841   3.488   3.553   4.208
 2674SOL    HW2 7842   3.511   3.502   4.361
 2675SOL     OW 7843   2.460   2.591   3.994
 2675SOL    HW1 7844   2.484   2.660   3.926
 2675SOL    HW2 7845   2.382   2.624   4.048
 2676SOL     OW 7846   3.143   2.207   4.668
 2676SOL    HW1 7847   3.057   2.157   4.655
 2676SOL    HW2 7848   3.205   2.153   4.724
 2677SOL     OW 7849   3.438   3.524   4.031
 2677SOL    HW1 7850   3.527   3.570   4.034
 2677SOL    HW2 7851   3.417   3.500   3.936
 2678SOL     OW 7852   2.853   2.272   4.966
 2678SOL    HW1 7853   2.776   2.306   5.020
 2678SOL    HW2 7854   2.819   2.221   4.887
 2679SOL     OW 7855   2.903   2.563   4.153
 2679SOL    HW1 7856   2.929   2.559   4.249
 2679SOL    HW2 7857   2.818   2.512   4.139
 2680SOL     OW 7858   1.938   2.673   4.513
 2680SOL    HW1 7859   2.037   2.661   4.522
 2680SOL    HW2 7860   1.914   2.768   4.534
 2681SOL     OW 7861   2.727   2.210   3.919
 2681SOL    HW1 7862   2.786   2.273   3.870
 2681SOL    HW2 7863   2.746   2.116   3.890
 2682SOL     OW 7864   3.224   3.006   4.269
 2682SOL    HW1 7865   3.307   2.977   4.221
 2682SOL    HW2 7866   3.175   3.073   4.213
 2683SOL     OW 7867   2.412   2.058   4.609
 2683SOL    HW1 7868   2.407   2.053   4.709
 2683SOL    HW2 7869   2.414   2.154   4.580
 2684SOL     OW 7870   2.870   3.318   4.201
 2684SOL    HW1 7871   2.824   3.390   4.149
 2684SOL    HW2 7872   2.866   3.338   4.299
 2685SOL     OW 7873   2.213   3.663   4.577
 2685SOL    HW1 7874   2.263   3.577   4.583
 2685SOL    HW2 7875   2.278   3.740   4.574
 2686SOL     OW 7876   3.657   2.928   4.597
 2686SOL    HW1 7877   3.595   2.913   4.521
 2686SOL    HW2 7878   3.605   2.939   4.682
 2687SOL     OW 7879   2.183   2.805   3.966
 2687SOL    HW1 7880   2.265   2.844   3.924
 2687SOL    HW2 7881   2.156   2.723   3.917
 2688SOL     OW 7882   3.320   2.597   4.452
 2688SOL    HW1 7883   3.315   2.532   4.527
 2688SOL    HW2 7884   3.400   2.656   4.465
 2689SOL     OW 7885   2.973   3.638   3.961
 2689SOL    HW1 7886   2.913   3.576   4.011
 2689SOL    HW2 7887   3.004   3.594   3.876
 2690SOL     OW 7888   3.494   3.239   3.805
 2690SOL    HW1 7889   3.462   3.333   3.795
 2690SOL    HW2 7890   3.418   3.176   3.793
 2691SOL     OW 7891   2.326   3.605   4.047
 2691SOL    HW1 7892   2.359   3.644   4.133
 2691SOL    HW2 7893   2.402   3.598   3.982
 2692SOL     OW 7894   3.262   1.969   4.150
 2692SOL    HW1 7895   3.238   1.932   4.060
 2692SOL    HW2 7896   3.361   1.985   4.154
 2693SOL     OW 7897   2.111   3.647   4.965
 2693SOL    HW1 7898   2.168   3.582   5.015
 2693SOL    HW2 7899   2.095   3.614   4.872
 2694SOL     OW 7900   2.802   3.560   4.628
 2694SOL    HW1 7901   2.882   3.503   4.649
 2694SOL    HW2 7902   2.753   3.520   4.551
 2695SOL     OW 7903   2.244   2.562   4.204
 2695SOL    HW1 7904   2.289   2.472   4.201
 2695SOL    HW2 7905   2.150   2.551   4.237
 2696SOL     OW 7906   2.476   1.984   3.841
 2696SOL    HW1 7907   2.574   1.962   3.848
 2696SOL    HW2 7908   2.445   1.967   3.748
 2697SOL     OW 7909   2.665   3.264   4.648
 2697SOL    HW1 7910   2.755   3.278   4.606
 2697SOL    HW2 7911   2.594   3.266   4.577
 2698SOL     OW 7912   2.784   2.365   4.623
 2698SOL    HW1 7913   2.759   2.356   4.527
 2698SOL    HW2 7914   2.832   2.283   4.654
 2699SOL     OW 7915   2.401   1.926   4.236
 2699SOL    HW1 7916   2.320   1.927   4.294
 2699SOL    HW2 7917   2.404   2.009   4.181
 2700SOL     OW 7918   3.296   3.050   3.765
 2700SOL    HW1 7919   3.328   2.974   3.822
 2700SOL    HW2 7920   3.204   3.077   3.795
 2701SOL     OW 7921   2.159   1.897   3.895
 2701SOL    HW1 7922   2.208   1.981   3.874
 2701SOL    HW2 7923   2.221   1.832   3.940
 2702SOL     OW 7924   2.797   2.098   4.204
 2702SOL    HW1 7925   2.749   2.139   4.126
 2702SOL    HW2 7926   2.896   2.096   4.185
 2703SOL     OW 7927   3.089   3.432   4.517
 2703SOL    HW1 7928   3.110   3.506   4.452
 2703SOL    HW2 7929   3.157   3.432   4.590
 2704SOL     OW 7930   2.321   3.014   4.465
 2704SOL    HW1 7931   2.250   2.987   4.530
 2704SOL    HW2 7932   2.295   2.986   4.372
 2705SOL     OW 7933   3.133   3.659   4.315
 2705SOL    HW1 7934   3.177   3.723   4.251
 2705SOL    HW2 7935   3.083   3.711   4.385
 2706SOL     OW 7936   2.894   2.411   3.740
 2706SOL    HW1 7937   2.853   2.493   3.701
 2706SOL    HW2 7938   2.958   2.437   3.813
 2707SOL     OW 7939   2.423   2.084   4.871
 2707SOL    HW1 7940   2.461   2.000   4.908
 2707SOL    HW2 7941   2.335   2.103   4.915
 2708SOL     OW 7942   2.728   2.316   4.366
 2708SOL    HW1 7943   2.696   2.388   4.304
 2708SOL    HW2 7944   2.752   2.235   4.313
 2709SOL     OW 7945   2.879   1.901   4.477
 2709SOL    HW1 7946   2.807   1.906   4.408
 2709SOL    HW2 7947   2.855   1.832   4.546
 2710SOL     OW 7948   3.291   3.035   4.591
 2710SOL    HW1 7949   3.236   2.951   4.584
 2710SOL    HW2 7950   3.317   3.064   4.499
 2711SOL     OW 7951   3.328   2.452   4.716
 2711SOL    HW1 7952   3.298   2.357   4.723
 2711SOL    HW2 7953   3.401   2.468   4.782
 2712SOL     OW 7954   3.719   2.695   4.101
 2712SOL    HW1 7955   3.761   2.631   4.165
 2712SOL    HW2 7956   3.681   2.644   4.023
 2713SOL     OW 7957   2.350   3.247   3.898
 2713SOL    HW1 7958   2.263   3.232   3.945
 2713SOL    HW2 7959   2.333   3.273   3.803
 2714SOL     OW 7960   3.526   3.142   4.381
 2714SOL    HW1 7961   3.625   3.150   4.395
 2714SOL    HW2 7962   3.481   3.226   4.412
 2715SOL     OW 7963   3.252   2.437   3.802
 2715SOL    HW1 7964   3.198   2.416   3.883
 2715SOL    HW2 7965   3.343   2.396   3.811
 2716SOL     OW 7966   2.389   2.118   4.052
 2716SOL    HW1 7967   2.416   2.059   3.977
 2716SOL    HW2 7968   2.389   2.213   4.021
 2717SOL     OW 7969   2.973   3.057   4.824
 2717SOL    HW1 7970   2.933   3.101   4.905
 2717SOL    HW2 7971   2.932   3.094   4.741
 2718SOL     OW 7972   3.500   2.961   4.803
 2718SOL    HW1 7973   3.505   3.042   4.862
 2718SOL    HW2 7974   3.414   2.963   4.752
 2719SOL     OW 7975   2.567   2.912   4.092
 2719SOL    HW1 7976   2.553   2.919   4.191
 2719SOL    HW2 7977   2.651   2.861   4.074
 2720SOL     OW 7978   2.272   2.675   4.975
 2720SOL    HW1 7979   2.358   2.687   5.025
 2720SOL    HW2 7980   2.230   2.588   5.002
 2721SOL     OW 7981   3.136   2.248   4.986
 2721SOL    HW1 7982   3.157   2.322   5.050
 2721SOL    HW2 7983   3.047   2.265   4.943
 2722SOL     OW 7984   2.229   2.962   4.225
 2722SOL    HW1 7985   2.222   3.045   4.169
 2722SOL    HW2 7986   2.233   2.882   4.165
 2723SOL     OW 7987   2.428   2.399   4.589
 2723SOL    HW1 7988   2.440   2.465   4.515
 2723SOL    HW2 7989   2.474   2.433   4.672
 2724SOL     OW 7990   3.114   3.210   4.112
 2724SOL    HW1 7991   3.164   3.287   4.152
 2724SOL    HW2 7992   3.019   3.212   4.144
 2725SOL     OW 7993   3.134   3.307   4.866
 2725SOL    HW1 7994   3.181   3.320   4.953
 2725SOL    HW2 7995   3.068   3.233   4.875
 2726SOL     OW 7996   3.444   2.501   4.196
 2726SOL    HW1 7997   3.413   2.562   4.269
 2726SOL    HW2 7998   3.494   2.553   4.127
 2727SOL     OW 7999   2.216   3.372   5.053
 2727SOL    HW1 8000   2.195   3.328   4.966
 2727SOL    HW2 8001   2.313   3.398   5.056
 2728SOL     OW 8002   2.435   2.732   4.753
 2728SOL    HW1 8003   2.479   2.821   4.744
 2728SOL    HW2 8004   2.372   2.732   4.830
 2729SOL     OW 8005   3.222   2.724   4.769
 2729SOL    HW1 8006   3.147   2.724   4.703
 2729SOL    HW2 8007   3.259   2.632   4.778
 2730SOL     OW 8008   3.071   2.387   3.999
 2730SOL    HW1 8009   3.084   2.303   4.053
 2730SOL    HW2 8010   3.042   2.461   4.059
 2731SOL     OW 8011   2.169   2.075   4.955
 2731SOL    HW1 8012   2.146   2.112   5.045
 2731SOL    HW2 8013   2.139   1.980   4.949
 2732SOL     OW 8014   1.899   3.172   5.006
 2732SOL    HW1 8015   1.952   3.123   5.074
 2732SOL    HW2 8016   1.921   3.270   5.011
 2733SOL     OW 8017   2.594   2.496   4.788
 2733SOL    HW1 8018   2.653   2.470   4.712
 2733SOL    HW2 8019   2.566   2.592   4.777
 2734SOL     OW 8020   2.169   1.925   4.342
 2734SOL    HW1 8021   2.158   2.019   4.375
 2734SOL    HW2 8022   2.164   1.862   4.419
 2735SOL     OW 8023   3.484   2.229   4.098
 2735SOL    HW1 8024   3.486   2.153   4.162
 2735SOL    HW2 8025   3.436   2.306   4.138
 2736SOL     OW 8026   2.885   2.628   4.690
 2736SOL    HW1 8027   2.900   2.649   4.786
 2736SOL    HW2 8028   2.855   2.533   4.681
 2737SOL     OW 8029   3.402   2.136   3.849
 2737SOL    HW1 8030   3.341   2.061   3.872
 2737SOL    HW2 8031   3.424   2.188   3.932
 2738SOL     OW 8032   3.165   2.700   3.766
 2738SOL    HW1 8033   3.199   2.607   3.781
 2738SOL    HW2 8034   3.183   2.727   3.671
 2739SOL     OW 8035   2.930   3.195   4.573
 2739SOL    HW1 8036   2.937   3.111   4.518
 2739SOL    HW2 8037   2.992   3.264   4.537
 2740SOL     OW 8038   2.181   2.672   4.673
 2740SOL    HW1 8039   2.274   2.708   4.678
 2740SOL    HW2 8040   2.175   2.587   4.725
 2741SOL     OW 8041   2.201   2.371   4.730
 2741SOL    HW1 8042   2.149   2.288   4.713
 2741SOL    HW2 8043   2.278   2.376   4.666
 2742SOL     OW 8044   3.022   2.069   5.201
 2742SOL    HW1 8045   3.022   2.133   5.278
 2742SOL    HW2 8046   3.050   2.117   5.118
 2743SOL     OW 8047   1.870   3.188   3.924
 2743SOL    HW1 8048   1.777   3.209   3.893
 2743SOL    HW2 8049   1.880   3.089   3.937
 2744SOL     OW 8050   1.950   3.663   4.651
 2744SOL    HW1 8051   1.908   3.577   4.624
 2744SOL    HW2 8052   2.044   3.666   4.617
 2745SOL     OW 8053   2.366   3.430   4.634
 2745SOL    HW1 8054   2.432   3.504   4.643
 2745SOL    HW2 8055   2.410   3.351   4.592
 2746SOL     OW 8056   2.864   2.658   4.962
 2746SOL    HW1 8057   2.905   2.626   5.048
 2746SOL    HW2 8058   2.768   2.631   4.959
 2747SOL     OW 8059   1.902   2.406   4.838
 2747SOL    HW1 8060   1.987   2.373   4.797
 2747SOL    HW2 8061   1.915   2.421   4.936
 2748SOL     OW 8062   2.677   2.434   4.049
 2748SOL    HW1 8063   2.684   2.345   4.003
 2748SOL    HW2 8064   2.583   2.468   4.041
 2749SOL     OW 8065   3.519   2.466   4.930
 2749SOL    HW1 8066   3.481   2.397   4.992
 2749SOL    HW2 8067   3.601   2.430   4.886
 2750SOL     OW 8068   2.533   2.326   4.993
 2750SOL    HW1 8069   2.499   2.237   4.963
 2750SOL    HW2 8070   2.559   2.380   4.913
 2751SOL     OW 8071   2.792   3.540   5.189
 2751SOL    HW1 8072   2.768   3.522   5.094
 2751SOL    HW2 8073   2.822   3.634   5.199
 2752SOL     OW 8074   2.335   2.362   3.915
 2752SOL    HW1 8075   2.396   2.442   3.919
 2752SOL    HW2 8076   2.240   2.393   3.922
 2753SOL     OW 8077   3.209   2.921   4.958
 2753SOL    HW1 8078   3.233   2.858   4.884
 2753SOL    HW2 8079   3.119   2.961   4.940
 2754SOL     OW 8080   3.164   2.717   4.033
 2754SOL    HW1 8081   3.078   2.686   4.075
 2754SOL    HW2 8082   3.160   2.703   3.934
 2755SOL     OW 8083   3.621   3.609   4.878
 2755SOL    HW1 8084   3.682   3.639   4.805
 2755SOL    HW2 8085   3.583   3.520   4.856
 2756SOL     OW 8086   3.114   3.593   4.852
 2756SOL    HW1 8087   3.198   3.598   4.798
 2756SOL    HW2 8088   3.091   3.497   4.870
 2757SOL     OW 8089   1.945   3.120   4.746
 2757SOL    HW1 8090   1.940   3.119   4.846
 2757SOL    HW2 8091   1.862   3.079   4.708
 2758SOL     OW 8092   3.588   1.997   4.247
 2758SOL    HW1 8093   3.661   1.980   4.180
 2758SOL    HW2 8094   3.557   1.910   4.285
 2759SOL     OW 8095   3.250   3.435   4.201
 2759SOL    HW1 8096   3.317   3.447   4.127
 2759SOL    HW2 8097   3.210   3.524   4.224
 2760SOL     OW 8098   3.142   2.789   4.396
 2760SOL    HW1 8099   3.202   2.708   4.398
 2760SOL    HW2 8100   3.182   2.858   4.336
 2761SOL     OW 8101   2.534   3.478   3.878
 2761SOL    HW1 8102   2.543   3.488   3.779
 2761SOL    HW2 8103   2.494   3.389   3.899
 2762SOL     OW 8104   3.512   3.582   5.118
 2762SOL    HW1 8105   3.565   3.592   5.034
 2762SOL    HW2 8106   3.485   3.672   5.152
 2763SOL     OW 8107   3.703   2.037   4.687
 2763SOL    HW1 8108   3.742   1.952   4.651
 2763SOL    HW2 8109   3.605   2.039   4.668
 2764SOL     OW 8110   2.125   2.188   4.444
 2764SOL    HW1 8111   2.046   2.239   4.410
 2764SOL    HW2 8112   2.116   2.173   4.542
 2765SOL     OW 8113   3.056   3.474   3.755
 2765SOL    HW1 8114   3.062   3.381   3.792
 2765SOL    HW2 8115   2.997   3.474   3.675
 2766SOL     OW 8116   2.684   2.864   5.096
 2766SOL    HW1 8117   2.724   2.863   5.004
 2766SOL    HW2 8118   2.694   2.956   5.136
 2767SOL     OW 8119   2.778   2.772   4.015
 2767SOL    HW1 8120   2.841   2.810   3.947
 2767SOL    HW2 8121   2.818   2.689   4.054
 2768SOL     OW 8122   3.366   3.469   3.768
 2768SOL    HW1 8123   3.274   3.506   3.775
 2768SOL    HW2 8124   3.404   3.489   3.678
 2769SOL     OW 8125   2.901   2.960   4.420
 2769SOL    HW1 8126   2.831   2.913   4.474
 2769SOL    HW2 8127   2.960   2.892   4.377
 2770SOL     OW 8128   2.876   2.098   4.695
 2770SOL    HW1 8129   2.868   2.062   4.602
 2770SOL    HW2 8130   2.874   2.022   4.760
 2771SOL     OW 8131   2.452   3.349   4.215
 2771SOL    HW1 8132   2.494   3.291   4.145
 2771SOL    HW2 8133   2.408   3.428   4.171
 2772SOL     OW 8134   3.571   2.247   5.105
 2772SOL    HW1 8135   3.644   2.316   5.109
 2772SOL    HW2 8136   3.599   2.172   5.046
 2773SOL     OW 8137   2.117   3.210   4.014
 2773SOL    HW1 8138   2.021   3.211   3.987
 2773SOL    HW2 8139   2.129   3.263   4.098
 2774SOL     OW 8140   1.937   2.207   3.757
 2774SOL    HW1 8141   1.845   2.179   3.728
 2774SOL    HW2 8142   1.968   2.284   3.701
 2775SOL     OW 8143   1.934   2.028   4.042
 2775SOL    HW1 8144   1.917   2.111   3.988
 2775SOL    HW2 8145   2.024   1.991   4.020
 2776SOL     OW 8146   3.045   3.197   3.843
 2776SOL    HW1 8147   2.946   3.186   3.845
 2776SOL    HW2 8148   3.079   3.212   3.936
 2777SOL     OW 8149   3.355   3.629   4.683
 2777SOL    HW1 8150   3.388   3.693   4.614
 2777SOL    HW2 8151   3.421   3.623   4.758
 2778SOL     OW 8152   3.312   3.082   5.357
 2778SOL    HW1 8153   3.303   3.072   5.456
 2778SOL    HW2 8154   3.408   3.075   5.331
 2779SOL     OW 8155   3.536   2.745   4.978
 2779SOL    HW1 8156   3.509   2.656   4.941
 2779SOL    HW2 8157   3.537   2.813   4.905
 2780SOL     OW 8158   3.087   2.187   4.173
 2780SOL    HW1 8159   3.152   2.113   4.162
 2780SOL    HW2 8160   3.107   2.237   4.257
 2781SOL     OW 8161   2.456   2.607   4.376
 2781SOL    HW1 8162   2.506   2.692   4.357
 2781SOL    HW2 8163   2.368   2.609   4.328
 2782SOL     OW 8164   3.592   2.796   5.241
 2782SOL    HW1 8165   3.630   2.887   5.256
 2782SOL    HW2 8166   3.584   2.779   5.142
 2783SOL     OW 8167   2.721   3.236   3.740
 2783SOL    HW1 8168   2.675   3.251   3.828
 2783SOL    HW2 8169   2.765   3.321   3.710
 2784SOL     OW 8170   2.523   3.652   4.677
 2784SOL    HW1 8171   2.477   3.740   4.664
 2784SOL    HW2 8172   2.622   3.664   4.670
 2785SOL     OW 8173   2.721   2.818   4.585
 2785SOL    HW1 8174   2.775   2.749   4.633
 2785SOL    HW2 8175   2.689   2.887   4.651
 2786SOL     OW 8176   2.945   2.846   3.811
 2786SOL    HW1 8177   2.922   2.899   3.729
 2786SOL    HW2 8178   3.026   2.790   3.792
 2787SOL     OW 8179   3.723   3.431   4.575
 2787SOL    HW1 8180   3.652   3.419   4.505
 2787SOL    HW2 8181   3.724   3.352   4.635
 2788SOL     OW 8182   1.941   3.102   4.377
 2788SOL    HW1 8183   1.940   3.055   4.465
 2788SOL    HW2 8184   2.023   3.074   4.326
 2789SOL     OW 8185   3.686   2.054   4.951
 2789SOL    HW1 8186   3.682   1.964   4.995
 2789SOL    HW2 8187   3.689   2.043   4.852
 2790SOL     OW 8188   2.290   2.286   4.244
 2790SOL    HW1 8189   2.320   2.214   4.182
 2790SOL    HW2 8190   2.251   2.246   4.327
 2791SOL     OW 8191   3.567   3.349   4.828
 2791SOL    HW1 8192   3.474   3.324   4.801
 2791SOL    HW2 8193   3.593   3.299   4.910
 2792SOL     OW 8194   2.674   3.448   4.411
 2792SOL    HW1 8195   2.706   3.458   4.317
 2792SOL    HW2 8196   2.595   3.386   4.413
 2793SOL     OW 8197   3.286   2.076   4.836
 2793SOL    HW1 8198   3.338   2.011   4.891
 2793SOL    HW2 8199   3.237   2.139   4.897
 2794SOL     OW 8200   2.863   1.896   4.878
 2794SOL    HW1 8201   2.800   1.824   4.847
 2794SOL    HW2 8202   2.956   1.860   4.878
 2795SOL     OW 8203   2.632   3.192   4.025
 2795SOL    HW1 8204   2.586   3.105   4.042
 2795SOL    HW2 8205   2.723   3.189   4.066
 2796SOL     OW 8206   3.214   1.914   3.892
 2796SOL    HW1 8207   3.249   1.873   3.808
 2796SOL    HW2 8208   3.124   1.876   3.912
 2797SOL     OW 8209   3.162   2.315   4.415
 2797SOL    HW1 8210   3.103   2.395   4.419
 2797SOL    HW2 8211   3.177   2.280   4.508
 2798SOL     OW 8212   3.455   2.083   4.606
 2798SOL    HW1 8213   3.371   2.082   4.660
 2798SOL    HW2 8214   3.457   2.166   4.550
 2799SOL     OW 8215   1.901   2.939   4.024
 2799SOL    HW1 8216   2.000   2.928   4.015
 2799SOL    HW2 8217   1.861   2.853   4.056
 2800SOL     OW 8218   2.737   3.508   4.061
 2800SOL    HW1 8219   2.660   3.473   4.007
 2800SOL    HW2 8220   2.705   3.579   4.123
 2801SOL     OW 8221   2.092   4.352   0.113
 2801SOL    HW1 8222   1.999   4.350   0.150
 2801SOL    HW2 8223   2.093   4.313   0.021
 2802SOL     OW 8224   2.087   3.999   0.996
 2802SOL    HW1 8225   2.122   3.982   1.088
 2802SOL    HW2 8226   1.999   3.954   0.984
 2803SOL     OW 8227   1.881   4.092   0.647
 2803SOL    HW1 8228   1.799   4.135   0.686
 2803SOL    HW2 8229   1.853   4.019   0.584
 2804SOL     OW 8230   2.431   4.999   1.165
 2804SOL    HW1 8231   2.338   4.992   1.128
 2804SOL    HW2 8232   2.442   5.088   1.209
 2805SOL     OW 8233   3.417   5.235   0.703
 2805SOL    HW1 8234   3.360   5.219   0.784
 2805SOL    HW2 8235   3.358   5.245   0.623
 2806SOL     OW 8236   2.997   4.427   0.717
 2806SOL    HW1 8237   3.054   4.505   0.692
 2806SOL    HW2 8238   2.937   4.453   0.793
 2807SOL     OW 8239   3.617   4.331   0.231
 2807SOL    HW1 8240   3.605   4.318   0.132
 2807SOL    HW2 8241   3.587   4.250   0.280
 2808SOL     OW 8242   2.630   4.868   1.023
 2808SOL    HW1 8243   2.552   4.885   1.083
 2808SOL    HW2 8244   2.664   4.955   0.987
 2809SOL     OW 8245   2.712   4.522   1.823
 2809SOL    HW1 8246   2.708   4.598   1.888
 2809SOL    HW2 8247   2.734   4.558   1.732
 2810SOL     OW 8248   2.547   4.736   0.665
 2810SOL    HW1 8249   2.616   4.720   0.735
 2810SOL    HW2 8250   2.474   4.793   0.703
 2811SOL     OW 8251   2.548   4.885   1.803
 2811SOL    HW1 8252   2.608   4.964   1.817
 2811SOL    HW2 8253   2.462   4.916   1.762
 2812SOL     OW 8254   2.197   5.159   1.061
 2812SOL    HW1 8255   2.119   5.128   1.008
 2812SOL    HW2 8256   2.255   5.217   1.004
 2813SOL     OW 8257   2.300   4.116   1.499
 2813SOL    HW1 8258   2.382   4.060   1.508
 2813SOL    HW2 8259   2.219   4.058   1.503
 2814SOL     OW 8260   3.465   4.171   0.737
 2814SOL    HW1 8261   3.391   4.217   0.687
 2814SOL    HW2 8262   3.516   4.239   0.790
 2815SOL     OW 8263   2.102   4.815   0.886
 2815SOL    HW1 8264   2.116   4.731   0.938
 2815SOL    HW2 8265   2.047   4.879   0.941
 2816SOL     OW 8266   2.468   4.688   0.123
 2816SOL    HW1 8267   2.475   4.772   0.069
 2816SOL    HW2 8268   2.514   4.701   0.211
 2817SOL     OW 8269   3.456   3.838   1.480
 2817SOL    HW1 8270   3.438   3.905   1.408
 2817SOL    HW2 8271   3.453   3.884   1.569
 2818SOL     OW 8272   1.984   4.367   0.563
 2818SOL    HW1 8273   1.939   4.279   0.580
 2818SOL    HW2 8274   1.983   4.421   0.647
 2819SOL     OW 8275   3.551   4.646   0.612
 2819SOL    HW1 8276   3.646   4.617   0.620
 2819SOL    HW2 8277   3.543   4.711   0.537
 2820SOL     OW 8278   3.503   4.832   0.432
 2820SOL    HW1 8279   3.589   4.834   0.380
 2820SOL    HW2 8280   3.517   4.879   0.520
 2821SOL     OW 8281   1.975   4.461   1.597
 2821SOL    HW1 8282   2.063   4.448   1.642
 2821SOL    HW2 8283   1.962   4.558   1.575
 2822SOL     OW 8284   3.155   4.952   1.423
 2822SOL    HW1 8285   3.192   4.879   1.365
 2822SOL    HW2 8286   3.207   4.957   1.508
 2823SOL     OW 8287   2.671   3.728   0.502
 2823SOL    HW1 8288   2.711   3.819   0.493
 2823SOL    HW2 8289   2.571   3.736   0.508
 2824SOL     OW 8290   2.059   4.700   1.264
 2824SOL    HW1 8291   2.148   4.655   1.250
 2824SOL    HW2 8292   1.986   4.635   1.245
 2825SOL     OW 8293   3.387   4.723   0.190
 2825SOL    HW1 8294   3.324   4.647   0.203
 2825SOL    HW2 8295   3.435   4.741   0.276
 2826SOL     OW 8296   2.179   3.975   1.801
 2826SOL    HW1 8297   2.250   4.046   1.807
 2826SOL    HW2 8298   2.091   4.014   1.829
 2827SOL     OW 8299   3.328   5.141   0.953
 2827SOL    HW1 8300   3.269   5.147   1.033
 2827SOL    HW2 8301   3.313   5.053   0.907
 2828SOL     OW 8302   2.460   4.453   0.270
 2828SOL    HW1 8303   2.484   4.522   0.202
 2828SOL    HW2 8304   2.382   4.486   0.324
 2829SOL     OW 8305   3.143   4.069   0.944
 2829SOL    HW1 8306   3.057   4.019   0.931
 2829SOL    HW2 8307   3.205   4.015   1.000
 2830SOL     OW 8308   2.669   4.329   1.465
 2830SOL    HW1 8309   2.622   4.326   1.554
 2830SOL    HW2 8310   2.618   4.274   1.399
 2831SOL     OW 8311   3.256   4.193   1.674
 2831SOL    HW1 8312   3.236   4.236   1.762
 2831SOL    HW2 8313   3.334   4.131   1.683
 2832SOL     OW 8314   2.835   4.614   1.572
 2832SOL    HW1 8315   2.881   4.530   1.543
 2832SOL    HW2 8316   2.779   4.648   1.497
 2833SOL     OW 8317   2.853   4.134   1.242
 2833SOL    HW1 8318   2.776   4.168   1.296
 2833SOL    HW2 8319   2.819   4.083   1.163
 2834SOL     OW 8320   2.903   4.425   0.429
 2834SOL    HW1 8321   2.929   4.421   0.525
 2834SOL    HW2 8322   2.818   4.374   0.415
 2835SOL     OW 8323   1.938   4.535   0.789
 2835SOL    HW1 8324   2.037   4.523   0.798
 2835SOL    HW2 8325   1.914   4.630   0.810
 2836SOL     OW 8326   2.727   4.072   0.195
 2836SOL    HW1 8327   2.786   4.135   0.146
 2836SOL    HW2 8328   2.746   3.978   0.166
 2837SOL     OW 8329   3.581   4.309   1.831
 2837SOL    HW1 8330   3.555   4.398   1.795
 2837SOL    HW2 8331   3.579   4.241   1.758
 2838SOL     OW 8332   3.224   4.868   0.545
 2838SOL    HW1 8333   3.307   4.839   0.497
 2838SOL    HW2 8334   3.175   4.935   0.489
 2839SOL     OW 8335   2.412   3.920   0.885
 2839SOL    HW1 8336   2.407   3.915   0.985
 2839SOL    HW2 8337   2.414   4.016   0.856
 2840SOL     OW 8338   3.657   4.790   0.873
 2840SOL    HW1 8339   3.595   4.775   0.797
 2840SOL    HW2 8340   3.605   4.801   0.958
 2841SOL     OW 8341   2.183   4.667   0.242
 2841SOL    HW1 8342   2.265   4.706   0.200
 2841SOL    HW2 8343   2.156   4.585   0.193
 2842SOL     OW 8344   3.320   4.459   0.728
 2842SOL    HW1 8345   3.315   4.394   0.803
 2842SOL    HW2 8346   3.400   4.518   0.741
 2843SOL     OW 8347   2.064   4.009   1.498
 2843SOL    HW1 8348   1.984   4.069   1.485
 2843SOL    HW2 8349   2.054   3.960   1.584
 2844SOL     OW 8350   3.494   5.101   0.081
 2844SOL    HW1 8351   3.462   5.195   0.071
 2844SOL    HW2 8352   3.418   5.038   0.069
 2845SOL     OW 8353   3.262   3.831   0.426
 2845SOL    HW1 8354   3.238   3.794   0.336
 2845SOL    HW2 8355   3.361   3.847   0.430
 2846SOL     OW 8356   2.244   4.424   0.480
 2846SOL    HW1 8357   2.289   4.334   0.477
 2846SOL    HW2 8358   2.150   4.413   0.513
 2847SOL     OW 8359   3.409   3.946   1.729
 2847SOL    HW1 8360   3.404   3.983   1.821
 2847SOL    HW2 8361   3.337   3.877   1.717
 2848SOL     OW 8362   2.643   3.988   1.749
 2848SOL    HW1 8363   2.710   3.927   1.792
 2848SOL    HW2 8364   2.570   4.007   1.814
 2849SOL     OW 8365   3.213   4.314   1.433
 2849SOL    HW1 8366   3.241   4.271   1.518
 2849SOL    HW2 8367   3.238   4.410   1.434
 2850SOL     OW 8368   2.665   5.126   0.924
 2850SOL    HW1 8369   2.755   5.140   0.882
 2850SOL    HW2 8370   2.594   5.128   0.853
 2851SOL     OW 8371   2.784   4.227   0.899
 2851SOL    HW1 8372   2.759   4.218   0.803
 2851SOL    HW2 8373   2.832   4.145   0.930
 2852SOL     OW 8374   2.401   3.788   0.512
 2852SOL    HW1 8375   2.320   3.789   0.570
 2852SOL    HW2 8376   2.404   3.871   0.457
 2853SOL     OW 8377   3.296   4.912   0.041
 2853SOL    HW1 8378   3.328   4.836   0.098
 2853SOL    HW2 8379   3.204   4.939   0.071
 2854SOL     OW 8380   2.159   3.759   0.171
 2854SOL    HW1 8381   2.208   3.843   0.150
 2854SOL    HW2 8382   2.221   3.694   0.216
 2855SOL     OW 8383   2.797   3.960   0.480
 2855SOL    HW1 8384   2.749   4.001   0.402
 2855SOL    HW2 8385   2.896   3.958   0.461
 2856SOL     OW 8386   2.938   4.407   1.464
 2856SOL    HW1 8387   2.858   4.346   1.467
 2856SOL    HW2 8388   3.019   4.354   1.440
 2857SOL     OW 8389   3.089   5.294   0.793
 2857SOL    HW1 8390   3.110   5.368   0.728
 2857SOL    HW2 8391   3.157   5.294   0.866
 2858SOL     OW 8392   2.321   4.876   0.741
 2858SOL    HW1 8393   2.250   4.849   0.806
 2858SOL    HW2 8394   2.295   4.848   0.648
 2859SOL     OW 8395   2.894   4.273   0.016
 2859SOL    HW1 8396   2.853   4.355  -0.023
 2859SOL    HW2 8397   2.958   4.299   0.089
 2860SOL     OW 8398   1.940   4.280   1.386
 2860SOL    HW1 8399   2.032   4.279   1.345
 2860SOL    HW2 8400   1.934   4.354   1.453
 2861SOL     OW 8401   2.423   3.946   1.147
 2861SOL    HW1 8402   2.461   3.862   1.184
 2861SOL    HW2 8403   2.335   3.965   1.191
 2862SOL     OW 8404   2.728   4.178   0.642
 2862SOL    HW1 8405   2.696   4.250   0.580
 2862SOL    HW2 8406   2.752   4.097   0.589
 2863SOL     OW 8407   2.879   3.763   0.753
 2863SOL    HW1 8408   2.807   3.768   0.684
 2863SOL    HW2 8409   2.855   3.694   0.822
 2864SOL     OW 8410   3.291   4.897   0.867
 2864SOL    HW1 8411   3.236   4.813   0.860
 2864SOL    HW2 8412   3.317   4.926   0.775
 2865SOL     OW 8413   3.328   4.314   0.992
 2865SOL    HW1 8414   3.298   4.219   0.999
 2865SOL    HW2 8415   3.401   4.330   1.058
 2866SOL     OW 8416   3.719   4.557   0.377
 2866SOL    HW1 8417   3.761   4.493   0.441
 2866SOL    HW2 8418   3.681   4.506   0.299
 2867SOL     OW 8419   3.526   5.004   0.657
 2867SOL    HW1 8420   3.625   5.012   0.671
 2867SOL    HW2 8421   3.481   5.088   0.688
 2868SOL     OW 8422   3.252   4.299   0.078
 2868SOL    HW1 8423   3.198   4.278   0.159
 2868SOL    HW2 8424   3.343   4.258   0.087
 2869SOL     OW 8425   2.389   3.980   0.328
 2869SOL    HW1 8426   2.416   3.921   0.253
 2869SOL    HW2 8427   2.389   4.075   0.297
 2870SOL     OW 8428   3.616   4.947   1.588
 2870SOL    HW1 8429   3.707   4.908   1.575
 2870SOL    HW2 8430   3.624   5.043   1.612
 2871SOL     OW 8431   3.500   4.823   1.079
 2871SOL    HW1 8432   3.505   4.904   1.138
 2871SOL    HW2 8433   3.414   4.825   1.028
 2872SOL     OW 8434   2.777   3.813   1.402
 2872SOL    HW1 8435   2.802   3.793   1.307
 2872SOL    HW2 8436   2.849   3.869   1.444
 2873SOL     OW 8437   2.842   4.840   1.719
 2873SOL    HW1 8438   2.743   4.846   1.729
 2873SOL    HW2 8439   2.865   4.760   1.663
 2874SOL     OW 8440   2.567   4.774   0.368
 2874SOL    HW1 8441   2.553   4.781   0.467
 2874SOL    HW2 8442   2.651   4.723   0.350
 2875SOL     OW 8443   2.272   4.537   1.251
 2875SOL    HW1 8444   2.358   4.549   1.301
 2875SOL    HW2 8445   2.230   4.450   1.278
 2876SOL     OW 8446   3.136   4.110   1.262
 2876SOL    HW1 8447   3.157   4.184   1.326
 2876SOL    HW2 8448   3.047   4.127   1.219
 2877SOL     OW 8449   2.229   4.824   0.501
 2877SOL    HW1 8450   2.222   4.907   0.445
 2877SOL    HW2 8451   2.233   4.744   0.441
 2878SOL     OW 8452   2.428   4.261   0.865
 2878SOL    HW1 8453   2.440   4.327   0.791
 2878SOL    HW2 8454   2.474   4.295   0.948
 2879SOL     OW 8455   3.444   4.363   0.472
 2879SOL    HW1 8456   3.413   4.424   0.545
 2879SOL    HW2 8457   3.494   4.415   0.403
 2880SOL     OW 8458   2.264   4.475   1.598
 2880SOL    HW1 8459   2.332   4.530   1.551
 2880SOL    HW2 8460   2.304   4.387   1.625
 2881SOL     OW 8461   3.449   4.503   1.670
 2881SOL    HW1 8462   3.357   4.541   1.665
 2881SOL    HW2 8463   3.509   4.550   1.605
 2882SOL     OW 8464   2.875   3.829   1.770
 2882SOL    HW1 8465   2.881   3.914   1.718
 2882SOL    HW2 8466   2.907   3.753   1.713
 2883SOL     OW 8467   2.366   3.774   1.740
 2883SOL    HW1 8468   2.324   3.717   1.670
 2883SOL    HW2 8469   2.300   3.843   1.772
 2884SOL     OW 8470   2.435   4.594   1.029
 2884SOL    HW1 8471   2.479   4.683   1.020
 2884SOL    HW2 8472   2.372   4.594   1.106
 2885SOL     OW 8473   3.222   4.586   1.045
 2885SOL    HW1 8474   3.147   4.586   0.979
 2885SOL    HW2 8475   3.259   4.494   1.054
 2886SOL     OW 8476   3.071   4.249   0.275
 2886SOL    HW1 8477   3.084   4.165   0.329
 2886SOL    HW2 8478   3.042   4.323   0.335
 2887SOL     OW 8479   2.169   3.937   1.231
 2887SOL    HW1 8480   2.146   3.974   1.321
 2887SOL    HW2 8481   2.139   3.842   1.225
 2888SOL     OW 8482   2.594   4.358   1.064
 2888SOL    HW1 8483   2.653   4.332   0.988
 2888SOL    HW2 8484   2.566   4.454   1.053
 2889SOL     OW 8485   3.590   4.659   1.854
 2889SOL    HW1 8486   3.544   4.652   1.765
 2889SOL    HW2 8487   3.528   4.703   1.920
 2890SOL     OW 8488   2.169   3.787   0.618
 2890SOL    HW1 8489   2.158   3.881   0.651
 2890SOL    HW2 8490   2.164   3.724   0.695
 2891SOL     OW 8491   3.484   4.091   0.374
 2891SOL    HW1 8492   3.486   4.015   0.438
 2891SOL    HW2 8493   3.436   4.168   0.414
 2892SOL     OW 8494   2.885   4.490   0.966
 2892SOL    HW1 8495   2.900   4.511   1.062
 2892SOL    HW2 8496   2.855   4.395   0.957
 2893SOL     OW 8497   3.721   5.242   1.605
 2893SOL    HW1 8498   3.735   5.269   1.510
 2893SOL    HW2 8499   3.804   5.264   1.658
 2894SOL     OW 8500   2.212   4.622   1.804
 2894SOL    HW1 8501   2.288   4.666   1.852
 2894SOL    HW2 8502   2.247   4.575   1.722
 2895SOL     OW 8503   3.402   3.998   0.125
 2895SOL    HW1 8504   3.341   3.923   0.148
 2895SOL    HW2 8505   3.424   4.050   0.208
 2896SOL     OW 8506   3.165   4.562   0.042
 2896SOL    HW1 8507   3.199   4.469   0.057
 2896SOL    HW2 8508   3.183   4.589  -0.053
 2897SOL     OW 8509   2.181   4.534   0.949
 2897SOL    HW1 8510   2.274   4.570   0.954
 2897SOL    HW2 8511   2.175   4.449   1.001
 2898SOL     OW 8512   2.201   4.233   1.006
 2898SOL    HW1 8513   2.149   4.150   0.989
 2898SOL    HW2 8514   2.278   4.238   0.942
 2899SOL     OW 8515   3.000   4.104   1.678
 2899SOL    HW1 8516   2.955   4.167   1.742
 2899SOL    HW2 8517   3.093   4.135   1.661
 2900SOL     OW 8518   3.022   3.931   1.477
 2900SOL    HW1 8519   3.022   3.995   1.554
 2900SOL    HW2 8520   3.050   3.979   1.394
 2901SOL     OW 8521   2.864   4.520   1.238
 2901SOL    HW1 8522   2.905   4.488   1.324
 2901SOL    HW2 8523   2.768   4.493   1.235
 2902SOL     OW 8524   1.902   4.268   1.114
 2902SOL    HW1 8525   1.987   4.235   1.073
 2902SOL    HW2 8526   1.915   4.283   1.212
 2903SOL     OW 8527   2.051   4.244   1.722
 2903SOL    HW1 8528   2.110   4.204   1.652
 2903SOL    HW2 8529   1.993   4.315   1.681
 2904SOL     OW 8530   3.231   4.674   1.660
 2904SOL    HW1 8531   3.270   4.763   1.680
 2904SOL    HW2 8532   3.241   4.654   1.563
 2905SOL     OW 8533   2.677   4.296   0.325
 2905SOL    HW1 8534   2.684   4.207   0.279
 2905SOL    HW2 8535   2.583   4.330   0.317
 2906SOL     OW 8536   3.519   4.328   1.206
 2906SOL    HW1 8537   3.481   4.259   1.268
 2906SOL    HW2 8538   3.601   4.292   1.162
 2907SOL     OW 8539   2.533   4.188   1.269
 2907SOL    HW1 8540   2.499   4.099   1.239
 2907SOL    HW2 8541   2.559   4.242   1.189
 2908SOL     OW 8542   2.335   4.224   0.191
 2908SOL    HW1 8543   2.396   4.304   0.195
 2908SOL    HW2 8544   2.240   4.255   0.198
 2909SOL     OW 8545   2.021   4.861   1.466
 2909SOL    HW1 8546   2.043   4.800   1.542
 2909SOL    HW2 8547   2.031   4.812   1.380
 2910SOL     OW 8548   3.209   4.783   1.234
 2910SOL    HW1 8549   3.233   4.720   1.160
 2910SOL    HW2 8550   3.119   4.823   1.216
 2911SOL     OW 8551   3.164   4.579   0.309
 2911SOL    HW1 8552   3.078   4.548   0.351
 2911SOL    HW2 8553   3.160   4.565   0.210
 2912SOL     OW 8554   1.945   4.982   1.022
 2912SOL    HW1 8555   1.940   4.981   1.122
 2912SOL    HW2 8556   1.862   4.941   0.984
 2913SOL     OW 8557   2.765   3.810   0.133
 2913SOL    HW1 8558   2.816   3.811   0.047
 2913SOL    HW2 8559   2.821   3.768   0.204
 2914SOL     OW 8560   3.588   3.859   0.523
 2914SOL    HW1 8561   3.661   3.842   0.456
 2914SOL    HW2 8562   3.557   3.772   0.561
 2915SOL     OW 8563   3.142   4.651   0.672
 2915SOL    HW1 8564   3.202   4.570   0.674
 2915SOL    HW2 8565   3.182   4.720   0.612
 2916SOL     OW 8566   2.692   4.997   1.422
 2916SOL    HW1 8567   2.687   5.030   1.517
 2916SOL    HW2 8568   2.606   5.016   1.376
 2917SOL     OW 8569   3.703   3.899   0.963
 2917SOL    HW1 8570   3.742   3.814   0.927
 2917SOL    HW2 8571   3.605   3.901   0.944
 2918SOL     OW 8572   2.125   4.050   0.720
 2918SOL    HW1 8573   2.046   4.101   0.686
 2918SOL    HW2 8574   2.116   4.035   0.818
 2919SOL     OW 8575   2.684   4.726   1.372
 2919SOL    HW1 8576   2.724   4.725   1.280
 2919SOL    HW2 8577   2.694   4.818   1.412
 2920SOL     OW 8578   2.778   4.634   0.291
 2920SOL    HW1 8579   2.841   4.672   0.223
 2920SOL    HW2 8580   2.818   4.551   0.330
 2921SOL     OW 8581   2.234   5.012   1.490
 2921SOL    HW1 8582   2.221   5.105   1.456
 2921SOL    HW2 8583   2.150   4.960   1.477
 2922SOL     OW 8584   3.476   5.016   1.289
 2922SOL    HW1 8585   3.536   5.019   1.369
 2922SOL    HW2 8586   3.401   5.080   1.302
 2923SOL     OW 8587   2.901   4.822   0.696
 2923SOL    HW1 8588   2.831   4.775   0.750
 2923SOL    HW2 8589   2.960   4.754   0.653
 2924SOL     OW 8590   2.876   3.960   0.971
 2924SOL    HW1 8591   2.868   3.924   0.878
 2924SOL    HW2 8592   2.874   3.884   1.036
 2925SOL     OW 8593   3.571   4.109   1.381
 2925SOL    HW1 8594   3.644   4.178   1.385
 2925SOL    HW2 8595   3.599   4.034   1.322
 2926SOL     OW 8596   1.967   4.737   1.726
 2926SOL    HW1 8597   1.890   4.704   1.780
 2926SOL    HW2 8598   2.052   4.707   1.768
 2927SOL     OW 8599   2.534   3.927   1.489
 2927SOL    HW1 8600   2.624   3.911   1.449
 2927SOL    HW2 8601   2.542   3.932   1.588
 2928SOL     OW 8602   3.302   4.580   1.398
 2928SOL    HW1 8603   3.245   4.632   1.335
 2928SOL    HW2 8604   3.398   4.592   1.374
 2929SOL     OW 8605   1.934   3.890   0.318
 2929SOL    HW1 8606   1.917   3.973   0.264
 2929SOL    HW2 8607   2.024   3.853   0.296
 2930SOL     OW 8608   2.475   4.566   1.431
 2930SOL    HW1 8609   2.531   4.647   1.414
 2930SOL    HW2 8610   2.534   4.486   1.434
 2931SOL     OW 8611   2.578   4.289   1.708
 2931SOL    HW1 8612   2.597   4.354   1.782
 2931SOL    HW2 8613   2.638   4.209   1.717
 2932SOL     OW 8614   3.312   4.944   1.633
 2932SOL    HW1 8615   3.303   4.934   1.732
 2932SOL    HW2 8616   3.408   4.937   1.607
 2933SOL     OW 8617   3.536   4.607   1.254
 2933SOL    HW1 8618   3.509   4.518   1.217
 2933SOL    HW2 8619   3.537   4.675   1.181
 2934SOL     OW 8620   3.087   4.049   0.449
 2934SOL    HW1 8621   3.152   3.975   0.438
 2934SOL    HW2 8622   3.107   4.099   0.533
 2935SOL     OW 8623   2.456   4.469   0.652
 2935SOL    HW1 8624   2.506   4.554   0.633
 2935SOL    HW2 8625   2.368   4.471   0.604
 2936SOL     OW 8626   3.639   4.066   1.642
 2936SOL    HW1 8627   3.622   4.097   1.548
 2936SOL    HW2 8628   3.555   4.029   1.680
 2937SOL     OW 8629   3.592   4.658   1.517
 2937SOL    HW1 8630   3.630   4.749   1.532
 2937SOL    HW2 8631   3.584   4.641   1.418
 2938SOL     OW 8632   2.721   4.680   0.861
 2938SOL    HW1 8633   2.775   4.611   0.909
 2938SOL    HW2 8634   2.689   4.749   0.927
 2939SOL     OW 8635   2.945   4.708   0.087
 2939SOL    HW1 8636   2.922   4.761   0.005
 2939SOL    HW2 8637   3.026   4.652   0.068
 2940SOL     OW 8638   1.941   4.964   0.653
 2940SOL    HW1 8639   1.940   4.917   0.741
 2940SOL    HW2 8640   2.023   4.936   0.602
 2941SOL     OW 8641   3.686   3.916   1.227
 2941SOL    HW1 8642   3.682   3.826   1.271
 2941SOL    HW2 8643   3.689   3.905   1.128
 2942SOL     OW 8644   2.290   4.148   0.520
 2942SOL    HW1 8645   2.320   4.076   0.458
 2942SOL    HW2 8646   2.251   4.108   0.603
 2943SOL     OW 8647   2.179   4.271   1.280
 2943SOL    HW1 8648   2.217   4.212   1.352
 2943SOL    HW2 8649   2.219   4.245   1.192
 2944SOL     OW 8650   3.286   3.938   1.112
 2944SOL    HW1 8651   3.338   3.873   1.167
 2944SOL    HW2 8652   3.237   4.001   1.173
 2945SOL     OW 8653   2.863   3.758   1.154
 2945SOL    HW1 8654   2.800   3.686   1.123
 2945SOL    HW2 8655   2.956   3.722   1.154
 2946SOL     OW 8656   2.632   5.054   0.301
 2946SOL    HW1 8657   2.586   4.967   0.318
 2946SOL    HW2 8658   2.723   5.051   0.342
 2947SOL     OW 8659   3.214   3.776   0.168
 2947SOL    HW1 8660   3.249   3.735   0.084
 2947SOL    HW2 8661   3.124   3.738   0.188
 2948SOL     OW 8662   3.162   4.177   0.691
 2948SOL    HW1 8663   3.103   4.257   0.695
 2948SOL    HW2 8664   3.177   4.142   0.784
 2949SOL     OW 8665   3.455   3.945   0.882
 2949SOL    HW1 8666   3.371   3.944   0.936
 2949SOL    HW2 8667   3.457   4.028   0.826
 2950SOL     OW 8668   1.901   4.801   0.300
 2950SOL    HW1 8669   2.000   4.790   0.291
 2950SOL    HW2 8670   1.861   4.715   0.332
 2951SOL     OW 8671   2.092   4.352   1.975
 2951SOL    HW1 8672   1.999   4.350   2.012
 2951SOL    HW2 8673   2.093   4.313   1.883
 2952SOL     OW 8674   2.087   3.999   2.858
 2952SOL    HW1 8675   2.122   3.982   2.950
 2952SOL    HW2 8676   1.999   3.954   2.846
 2953SOL     OW 8677   1.881   4.092   2.509
 2953SOL    HW1 8678   1.799   4.135   2.548
 2953SOL    HW2 8679   1.853   4.019   2.446
 2954SOL     OW 8680   2.431   4.999   3.027
 2954SOL    HW1 8681   2.338   4.992   2.990
 2954SOL    HW2 8682   2.442   5.088   3.071
 2955SOL     OW 8683   3.417   5.235   2.565
 2955SOL    HW1 8684   3.360   5.219   2.646
 2955SOL    HW2 8685   3.358   5.245   2.485
 2956SOL     OW 8686   2.997   4.427   2.579
 2956SOL    HW1 8687   3.054   4.505   2.554
 2956SOL    HW2 8688   2.937   4.453   2.655
 2957SOL     OW 8689   3.617   4.331   2.093
 2957SOL    HW1 8690   3.605   4.318   1.994
 2957SOL    HW2 8691   3.587   4.250   2.142
 2958SOL     OW 8692   2.630   4.868   2.885
 2958SOL    HW1 8693   2.552   4.885   2.945
 2958SOL    HW2 8694   2.664   4.955   2.849
 2959SOL     OW 8695   2.712   4.522   3.685
 2959SOL    HW1 8696   2.708   4.598   3.750
 2959SOL    HW2 8697   2.734   4.558   3.594
 2960SOL     OW 8698   2.547   4.736   2.527
 2960SOL    HW1 8699   2.616   4.720   2.597
 2960SOL    HW2 8700   2.474   4.793   2.565
 2961SOL     OW 8701   2.548   4.885   3.665
 2961SOL    HW1 8702   2.608   4.964   3.679
 2961SOL    HW2 8703   2.462   4.916   3.624
 2962SOL     OW 8704   2.197   5.159   2.923
 2962SOL    HW1 8705   2.119   5.128   2.870
 2962SOL    HW2 8706   2.255   5.217   2.866
 2963SOL     OW 8707   2.300   4.116   3.361
 2963SOL    HW1 8708   2.382   4.060   3.370
 2963SOL    HW2 8709   2.219   4.058   3.365
 2964SOL     OW 8710   3.465   4.171   2.599
 2964SOL    HW1 8711   3.391   4.217   2.549
 2964SOL    HW2 8712   3.516   4.239   2.652
 2965SOL     OW 8713   2.102   4.815   2.748
 2965SOL    HW1 8714   2.116   4.731   2.800
 2965SOL    HW2 8715   2.047   4.879   2.803
 2966SOL     OW 8716   2.468   4.688   1.985
 2966SOL    HW1 8717   2.475   4.772   1.931
 2966SOL    HW2 8718   2.514   4.701   2.073
 2967SOL     OW 8719   3.456   3.838   3.342
 2967SOL    HW1 8720   3.438   3.905   3.270
 2967SOL    HW2 8721   3.453   3.884   3.431
 2968SOL     OW 8722   1.984   4.367   2.425
 2968SOL    HW1 8723   1.939   4.279   2.442
 2968SOL    HW2 8724   1.983   4.421   2.509
 2969SOL     OW 8725   3.551   4.646   2.474
 2969SOL    HW1 8726   3.646   4.617   2.482
 2969SOL    HW2 8727   3.543   4.711   2.399
 2970SOL     OW 8728   3.503   4.832   2.294
 2970SOL    HW1 8729   3.589   4.834   2.242
 2970SOL    HW2 8730   3.517   4.879   2.382
 2971SOL     OW 8731   1.975   4.461   3.459
 2971SOL    HW1 8732   2.063   4.448   3.504
 2971SOL    HW2 8733   1.962   4.558   3.437
 2972SOL     OW 8734   3.155   4.952   3.285
 2972SOL    HW1 8735   3.192   4.879   3.227
 2972SOL    HW2 8736   3.207   4.957   3.370
 2973SOL     OW 8737   2.671   3.728   2.364
 2973SOL    HW1 8738   2.711   3.819   2.355
 2973SOL    HW2 8739   2.571   3.736   2.370
 2974SOL     OW 8740   2.059   4.700   3.126
 2974SOL    HW1 8741   2.148   4.655   3.112
 2974SOL    HW2 8742   1.986   4.635   3.107
 2975SOL     OW 8743   3.387   4.723   2.052
 2975SOL    HW1 8744   3.324   4.647   2.065
 2975SOL    HW2 8745   3.435   4.741   2.138
 2976SOL     OW 8746   2.179   3.975   3.663
 2976SOL    HW1 8747   2.250   4.046   3.669
 2976SOL    HW2 8748   2.091   4.014   3.691
 2977SOL     OW 8749   3.328   5.141   2.815
 2977SOL    HW1 8750   3.269   5.147   2.895
 2977SOL    HW2 8751   3.313   5.053   2.769
 2978SOL     OW 8752   2.460   4.453   2.132
 2978SOL    HW1 8753   2.484   4.522   2.064
 2978SOL    HW2 8754   2.382   4.486   2.186
 2979SOL     OW 8755   3.143   4.069   2.806
 2979SOL    HW1 8756   3.057   4.019   2.793
 2979SOL    HW2 8757   3.205   4.015   2.862
 2980SOL     OW 8758   2.669   4.329   3.327
 2980SOL    HW1 8759   2.622   4.326   3.416
 2980SOL    HW2 8760   2.618   4.274   3.261
 2981SOL     OW 8761   3.256   4.193   3.536
 2981SOL    HW1 8762   3.236   4.236   3.624
 2981SOL    HW2 8763   3.334   4.131   3.545
 2982SOL     OW 8764   2.835   4.614   3.434
 2982SOL    HW1 8765   2.881   4.530   3.405
 2982SOL    HW2 8766   2.779   4.648   3.359
 2983SOL     OW 8767   2.853   4.134   3.104
 2983SOL    HW1 8768   2.776   4.168   3.158
 2983SOL    HW2 8769   2.819   4.083   3.025
 2984SOL     OW 8770   2.903   4.425   2.291
 2984SOL    HW1 8771   2.929   4.421   2.387
 2984SOL    HW2 8772   2.818   4.374   2.277
 2985SOL     OW 8773   1.938   4.535   2.651
 2985SOL    HW1 8774   2.037   4.523   2.660
 2985SOL    HW2 8775   1.914   4.630   2.672
 2986SOL     OW 8776   2.727   4.072   2.057
 2986SOL    HW1 8777   2.786   4.135   2.008
 2986SOL    HW2 8778   2.746   3.978   2.028
 2987SOL     OW 8779   3.581   4.309   3.693
 2987SOL    HW1 8780   3.555   4.398   3.657
 2987SOL    HW2 8781   3.579   4.241   3.620
 2988SOL     OW 8782   3.224   4.868   2.407
 2988SOL    HW1 8783   3.307   4.839   2.359
 2988SOL    HW2 8784   3.175   4.935   2.351
 2989SOL     OW 8785   2.412   3.920   2.747
 2989SOL    HW1 8786   2.407   3.915   2.847
 2989SOL    HW2 8787   2.414   4.016   2.718
 2990SOL     OW 8788   3.657   4.790   2.735
 2990SOL    HW1 8789   3.595   4.775   2.659
 2990SOL    HW2 8790   3.605   4.801   2.820
 2991SOL     OW 8791   2.183   4.667   2.104
 2991SOL    HW1 8792   2.265   4.706   2.062
 2991SOL    HW2 8793   2.156   4.585   2.055
 2992SOL     OW 8794   3.320   4.459   2.590
 2992SOL    HW1 8795   3.315   4.394   2.665
 2992SOL    HW2 8796   3.400   4.518   2.603
 2993SOL     OW 8797   2.064   4.009   3.360
 2993SOL    HW1 8798   1.984   4.069   3.347
 2993SOL    HW2 8799   2.054   3.960   3.446
 2994SOL     OW 8800   3.494   5.101   1.943
 2994SOL    HW1 8801   3.462   5.195   1.933
 2994SOL    HW2 8802   3.418   5.038   1.931
 2995SOL     OW 8803   3.262   3.831   2.288
 2995SOL    HW1 8804   3.238   3.794   2.198
 2995SOL    HW2 8805   3.361   3.847   2.292
 2996SOL     OW 8806   2.244   4.424   2.342
 2996SOL    HW1 8807   2.289   4.334   2.339
 2996SOL    HW2 8808   2.150   4.413   2.375
 2997SOL     OW 8809   3.409   3.946   3.591
 2997SOL    HW1 8810   3.404   3.983   3.683
 2997SOL    HW2 8811   3.337   3.877   3.579
 2998SOL     OW 8812   2.476   3.846   1.979
 2998SOL    HW1 8813   2.574   3.824   1.986
 2998SOL    HW2 8814   2.445   3.829   1.886
 2999SOL     OW 8815   2.643   3.988   3.611
 2999SOL    HW1 8816   2.710   3.927   3.654
 2999SOL    HW2 8817   2.570   4.007   3.676
 3000SOL     OW 8818   3.213   4.314   3.295
 3000SOL    HW1 8819   3.241   4.271   3.380
 3000SOL    HW2 8820   3.238   4.410   3.296
 3001SOL     OW 8821   2.665   5.126   2.786
 3001SOL    HW1 8822   2.755   5.140   2.744
 3001SOL    HW2 8823   2.594   5.128   2.715
 3002SOL     OW 8824   2.784   4.227   2.761
 3002SOL    HW1 8825   2.759   4.218   2.665
 3002SOL    HW2 8826   2.832   4.145   2.792
 3003SOL     OW 8827   2.401   3.788   2.374
 3003SOL    HW1 8828   2.320   3.789   2.432
 3003SOL    HW2 8829   2.404   3.871   2.319
 3004SOL     OW 8830   3.296   4.912   1.903
 3004SOL    HW1 8831   3.328   4.836   1.960
 3004SOL    HW2 8832   3.204   4.939   1.933
 3005SOL     OW 8833   2.159   3.759   2.033
 3005SOL    HW1 8834   2.208   3.843   2.012
 3005SOL    HW2 8835   2.221   3.694   2.078
 3006SOL     OW 8836   2.797   3.960   2.342
 3006SOL    HW1 8837   2.749   4.001   2.264
 3006SOL    HW2 8838   2.896   3.958   2.323
 3007SOL     OW 8839   2.938   4.407   3.326
 3007SOL    HW1 8840   2.858   4.346   3.329
 3007SOL    HW2 8841   3.019   4.354   3.302
 3008SOL     OW 8842   3.089   5.294   2.655
 3008SOL    HW1 8843   3.110   5.368   2.590
 3008SOL    HW2 8844   3.157   5.294   2.728
 3009SOL     OW 8845   2.321   4.876   2.603
 3009SOL    HW1 8846   2.250   4.849   2.668
 3009SOL    HW2 8847   2.295   4.848   2.510
 3010SOL     OW 8848   2.894   4.273   1.878
 3010SOL    HW1 8849   2.853   4.355   1.839
 3010SOL    HW2 8850   2.958   4.299   1.951
 3011SOL     OW 8851   1.940   4.280   3.248
 3011SOL    HW1 8852   2.032   4.279   3.207
 3011SOL    HW2 8853   1.934   4.354   3.315
 3012SOL     OW 8854   2.423   3.946   3.009
 3012SOL    HW1 8855   2.461   3.862   3.046
 3012SOL    HW2 8856   2.335   3.965   3.053
 3013SOL     OW 8857   2.728   4.178   2.504
 3013SOL    HW1 8858   2.696   4.250   2.442
 3013SOL    HW2 8859   2.752   4.097   2.451
 3014SOL     OW 8860   2.879   3.763   2.615
 3014SOL    HW1 8861   2.807   3.768   2.546
 3014SOL    HW2 8862   2.855   3.694   2.684
 3015SOL     OW 8863   3.291   4.897   2.729
 3015SOL    HW1 8864   3.236   4.813   2.722
 3015SOL    HW2 8865   3.317   4.926   2.637
 3016SOL     OW 8866   3.328   4.314   2.854
 3016SOL    HW1 8867   3.298   4.219   2.861
 3016SOL    HW2 8868   3.401   4.330   2.920
 3017SOL     OW 8869   3.719   4.557   2.239
 3017SOL    HW1 8870   3.761   4.493   2.303
 3017SOL    HW2 8871   3.681   4.506   2.161
 3018SOL     OW 8872   3.526   5.004   2.519
 3018SOL    HW1 8873   3.625   5.012   2.533
 3018SOL    HW2 8874   3.481   5.088   2.550
 3019SOL     OW 8875   3.252   4.299   1.940
 3019SOL    HW1 8876   3.198   4.278   2.021
 3019SOL    HW2 8877   3.343   4.258   1.949
 3020SOL     OW 8878   2.389   3.980   2.190
 3020SOL    HW1 8879   2.416   3.921   2.115
 3020SOL    HW2 8880   2.389   4.075   2.159
 3021SOL     OW 8881   3.616   4.947   3.450
 3021SOL    HW1 8882   3.707   4.908   3.437
 3021SOL    HW2 8883   3.624   5.043   3.474
 3022SOL     OW 8884   3.500   4.823   2.941
 3022SOL    HW1 8885   3.505   4.904   3.000
 3022SOL    HW2 8886   3.414   4.825   2.890
 3023SOL     OW 8887   2.777   3.813   3.264
 3023SOL    HW1 8888   2.802   3.793   3.169
 3023SOL    HW2 8889   2.849   3.869   3.306
 3024SOL     OW 8890   2.842   4.840   3.581
 3024SOL    HW1 8891   2.743   4.846   3.591
 3024SOL    HW2 8892   2.865   4.760   3.525
 3025SOL     OW 8893   2.567   4.774   2.230
 3025SOL    HW1 8894   2.553   4.781   2.329
 3025SOL    HW2 8895   2.651   4.723   2.212
 3026SOL     OW 8896   2.272   4.537   3.113
 3026SOL    HW1 8897   2.358   4.549   3.163
 3026SOL    HW2 8898   2.230   4.450   3.140
 3027SOL     OW 8899   3.136   4.110   3.124
 3027SOL    HW1 8900   3.157   4.184   3.188
 3027SOL    HW2 8901   3.047   4.127   3.081
 3028SOL     OW 8902   2.229   4.824   2.363
 3028SOL    HW1 8903   2.222   4.907   2.307
 3028SOL    HW2 8904   2.233   4.744   2.303
 3029SOL     OW 8905   2.428   4.261   2.727
 3029SOL    HW1 8906   2.440   4.327   2.653
 3029SOL    HW2 8907   2.474   4.295   2.810
 3030SOL     OW 8908   3.444   4.363   2.334
 3030SOL    HW1 8909   3.413   4.424   2.407
 3030SOL    HW2 8910   3.494   4.415   2.265
 3031SOL     OW 8911   2.264   4.475   3.460
 3031SOL    HW1 8912   2.332   4.530   3.413
 3031SOL    HW2 8913   2.304   4.387   3.487
 3032SOL     OW 8914   3.449   4.503   3.532
 3032SOL    HW1 8915   3.357   4.541   3.527
 3032SOL    HW2 8916   3.509   4.550   3.467
 3033SOL     OW 8917   2.875   3.829   3.632
 3033SOL    HW1 8918   2.881   3.914   3.580
 3033SOL    HW2 8919   2.907   3.753   3.575
 3034SOL     OW 8920   2.366   3.774   3.602
 3034SOL    HW1 8921   2.324   3.717   3.532
 3034SOL    HW2 8922   2.300   3.843   3.634
 3035SOL     OW 8923   2.435   4.594   2.891
 3035SOL    HW1 8924   2.479   4.683   2.882
 3035SOL    HW2 8925   2.372   4.594   2.968
 3036SOL     OW 8926   3.222   4.586   2.907
 3036SOL    HW1 8927   3.147   4.586   2.841
 3036SOL    HW2 8928   3.259   4.494   2.916
 3037SOL     OW 8929   3.071   4.249   2.137
 3037SOL    HW1 8930   3.084   4.165   2.191
 3037SOL    HW2 8931   3.042   4.323   2.197
 3038SOL     OW 8932   2.169   3.937   3.093
 3038SOL    HW1 8933   2.146   3.974   3.183
 3038SOL    HW2 8934   2.139   3.842   3.087
 3039SOL     OW 8935   2.594   4.358   2.926
 3039SOL    HW1 8936   2.653   4.332   2.850
 3039SOL    HW2 8937   2.566   4.454   2.915
 3040SOL     OW 8938   3.590   4.659   3.716
 3040SOL    HW1 8939   3.544   4.652   3.627
 3040SOL    HW2 8940   3.528   4.703   3.782
 3041SOL     OW 8941   2.169   3.787   2.480
 3041SOL    HW1 8942   2.158   3.881   2.513
 3041SOL    HW2 8943   2.164   3.724   2.557
 3042SOL     OW 8944   3.484   4.091   2.236
 3042SOL    HW1 8945   3.486   4.015   2.300
 3042SOL    HW2 8946   3.436   4.168   2.276
 3043SOL     OW 8947   2.885   4.490   2.828
 3043SOL    HW1 8948   2.900   4.511   2.924
 3043SOL    HW2 8949   2.855   4.395   2.819
 3044SOL     OW 8950   3.721   5.242   3.467
 3044SOL    HW1 8951   3.735   5.269   3.372
 3044SOL    HW2 8952   3.804   5.264   3.520
 3045SOL     OW 8953   2.212   4.622   3.666
 3045SOL    HW1 8954   2.288   4.666   3.714
 3045SOL    HW2 8955   2.247   4.575   3.584
 3046SOL     OW 8956   3.402   3.998   1.987
 3046SOL    HW1 8957   3.341   3.923   2.010
 3046SOL    HW2 8958   3.424   4.050   2.070
 3047SOL     OW 8959   3.165   4.562   1.904
 3047SOL    HW1 8960   3.199   4.469   1.919
 3047SOL    HW2 8961   3.183   4.589   1.809
 3048SOL     OW 8962   2.181   4.534   2.811
 3048SOL    HW1 8963   2.274   4.570   2.816
 3048SOL    HW2 8964   2.175   4.449   2.863
 3049SOL     OW 8965   2.201   4.233   2.868
 3049SOL    HW1 8966   2.149   4.150   2.851
 3049SOL    HW2 8967   2.278   4.238   2.804
 3050SOL     OW 8968   3.000   4.104   3.540
 3050SOL    HW1 8969   2.955   4.167   3.604
 3050SOL    HW2 8970   3.093   4.135   3.523
 3051SOL     OW 8971   3.022   3.931   3.339
 3051SOL    HW1 8972   3.022   3.995   3.416
 3051SOL    HW2 8973   3.050   3.979   3.256
 3052SOL     OW 8974   1.870   5.050   2.062
 3052SOL    HW1 8975   1.777   5.071   2.031
 3052SOL    HW2 8976   1.880   4.951   2.075
 3053SOL     OW 8977   2.864   4.520   3.100
 3053SOL    HW1 8978   2.905   4.488   3.186
 3053SOL    HW2 8979   2.768   4.493   3.097
 3054SOL     OW 8980   1.902   4.268   2.976
 3054SOL    HW1 8981   1.987   4.235   2.935
 3054SOL    HW2 8982   1.915   4.283   3.074
 3055SOL     OW 8983   2.051   4.244   3.584
 3055SOL    HW1 8984   2.110   4.204   3.514
 3055SOL    HW2 8985   1.993   4.315   3.543
 3056SOL     OW 8986   3.231   4.674   3.522
 3056SOL    HW1 8987   3.270   4.763   3.542
 3056SOL    HW2 8988   3.241   4.654   3.425
 3057SOL     OW 8989   2.677   4.296   2.187
 3057SOL    HW1 8990   2.684   4.207   2.141
 3057SOL    HW2 8991   2.583   4.330   2.179
 3058SOL     OW 8992   3.519   4.328   3.068
 3058SOL    HW1 8993   3.481   4.259   3.130
 3058SOL    HW2 8994   3.601   4.292   3.024
 3059SOL     OW 8995   2.533   4.188   3.131
 3059SOL    HW1 8996   2.499   4.099   3.101
 3059SOL    HW2 8997   2.559   4.242   3.051
 3060SOL     OW 8998   2.335   4.224   2.053
 3060SOL    HW1 8999   2.396   4.304   2.057
 3060SOL    HW2 9000   2.240   4.255   2.060
 3061SOL     OW 9001   2.021   4.861   3.328
 3061SOL    HW1 9002   2.043   4.800   3.404
 3061SOL    HW2 9003   2.031   4.812   3.242
 3062SOL     OW 9004   3.209   4.783   3.096
 3062SOL    HW1 9005   3.233   4.720   3.022
 3062SOL    HW2 9006   3.119   4.823   3.078
 3063SOL     OW 9007   3.164   4.579   2.171
 3063SOL    HW1 9008   3.078   4.548   2.213
 3063SOL    HW2 9009   3.160   4.565   2.072
 3064SOL     OW 9010   1.945   4.982   2.884
 3064SOL    HW1 9011   1.940   4.981   2.984
 3064SOL    HW2 9012   1.862   4.941   2.846
 3065SOL     OW 9013   3.588   3.859   2.385
 3065SOL    HW1 9014   3.661   3.842   2.318
 3065SOL    HW2 9015   3.557   3.772   2.423
 3066SOL     OW 9016   3.142   4.651   2.534
 3066SOL    HW1 9017   3.202   4.570   2.536
 3066SOL    HW2 9018   3.182   4.720   2.474
 3067SOL     OW 9019   2.692   4.997   3.284
 3067SOL    HW1 9020   2.687   5.030   3.379
 3067SOL    HW2 9021   2.606   5.016   3.238
 3068SOL     OW 9022   3.703   3.899   2.825
 3068SOL    HW1 9023   3.742   3.814   2.789
 3068SOL    HW2 9024   3.605   3.901   2.806
 3069SOL     OW 9025   2.125   4.050   2.582
 3069SOL    HW1 9026   2.046   4.101   2.548
 3069SOL    HW2 9027   2.116   4.035   2.680
 3070SOL     OW 9028   3.056   5.336   1.893
 3070SOL    HW1 9029   3.062   5.243   1.930
 3070SOL    HW2 9030   2.997   5.336   1.813
 3071SOL     OW 9031   2.684   4.726   3.234
 3071SOL    HW1 9032   2.724   4.725   3.142
 3071SOL    HW2 9033   2.694   4.818   3.274
 3072SOL     OW 9034   2.778   4.634   2.153
 3072SOL    HW1 9035   2.841   4.672   2.085
 3072SOL    HW2 9036   2.818   4.551   2.192
 3073SOL     OW 9037   2.234   5.012   3.352
 3073SOL    HW1 9038   2.221   5.105   3.318
 3073SOL    HW2 9039   2.150   4.960   3.339
 3074SOL     OW 9040   3.476   5.016   3.151
 3074SOL    HW1 9041   3.536   5.019   3.231
 3074SOL    HW2 9042   3.401   5.080   3.164
 3075SOL     OW 9043   2.901   4.822   2.558
 3075SOL    HW1 9044   2.831   4.775   2.612
 3075SOL    HW2 9045   2.960   4.754   2.515
 3076SOL     OW 9046   2.876   3.960   2.833
 3076SOL    HW1 9047   2.868   3.924   2.740
 3076SOL    HW2 9048   2.874   3.884   2.898
 3077SOL     OW 9049   3.571   4.109   3.243
 3077SOL    HW1 9050   3.644   4.178   3.247
 3077SOL    HW2 9051   3.599   4.034   3.184
 3078SOL     OW 9052   1.967   4.737   3.588
 3078SOL    HW1 9053   1.890   4.704   3.642
 3078SOL    HW2 9054   2.052   4.707   3.630
 3079SOL     OW 9055   2.534   3.927   3.351
 3079SOL    HW1 9056   2.624   3.911   3.311
 3079SOL    HW2 9057   2.542   3.932   3.450
 3080SOL     OW 9058   1.937   4.069   1.895
 3080SOL    HW1 9059   1.845   4.041   1.866
 3080SOL    HW2 9060   1.968   4.146   1.839
 3081SOL     OW 9061   3.302   4.580   3.260
 3081SOL    HW1 9062   3.245   4.632   3.197
 3081SOL    HW2 9063   3.398   4.592   3.236
 3082SOL     OW 9064   1.934   3.890   2.180
 3082SOL    HW1 9065   1.917   3.973   2.126
 3082SOL    HW2 9066   2.024   3.853   2.158
 3083SOL     OW 9067   2.475   4.566   3.293
 3083SOL    HW1 9068   2.531   4.647   3.276
 3083SOL    HW2 9069   2.534   4.486   3.296
 3084SOL     OW 9070   2.578   4.289   3.570
 3084SOL    HW1 9071   2.597   4.354   3.644
 3084SOL    HW2 9072   2.638   4.209   3.579
 3085SOL     OW 9073   3.312   4.944   3.495
 3085SOL    HW1 9074   3.303   4.934   3.594
 3085SOL    HW2 9075   3.408   4.937   3.469
 3086SOL     OW 9076   3.536   4.607   3.116
 3086SOL    HW1 9077   3.509   4.518   3.079
 3086SOL    HW2 9078   3.537   4.675   3.043
 3087SOL     OW 9079   3.087   4.049   2.311
 3087SOL    HW1 9080   3.152   3.975   2.300
 3087SOL    HW2 9081   3.107   4.099   2.395
 3088SOL     OW 9082   2.456   4.469   2.514
 3088SOL    HW1 9083   2.506   4.554   2.495
 3088SOL    HW2 9084   2.368   4.471   2.466
 3089SOL     OW 9085   3.639   4.066   3.504
 3089SOL    HW1 9086   3.622   4.097   3.410
 3089SOL    HW2 9087   3.555   4.029   3.542
 3090SOL     OW 9088   3.592   4.658   3.379
 3090SOL    HW1 9089   3.630   4.749   3.394
 3090SOL    HW2 9090   3.584   4.641   3.280
 3091SOL     OW 9091   2.721   4.680   2.723
 3091SOL    HW1 9092   2.775   4.611   2.771
 3091SOL    HW2 9093   2.689   4.749   2.789
 3092SOL     OW 9094   2.945   4.708   1.949
 3092SOL    HW1 9095   2.922   4.761   1.867
 3092SOL    HW2 9096   3.026   4.652   1.930
 3093SOL     OW 9097   1.941   4.964   2.515
 3093SOL    HW1 9098   1.940   4.917   2.603
 3093SOL    HW2 9099   2.023   4.936   2.464
 3094SOL     OW 9100   3.686   3.916   3.089
 3094SOL    HW1 9101   3.682   3.826   3.133
 3094SOL    HW2 9102   3.689   3.905   2.990
 3095SOL     OW 9103   2.290   4.148   2.382
 3095SOL    HW1 9104   2.320   4.076   2.320
 3095SOL    HW2 9105   2.251   4.108   2.465
 3096SOL     OW 9106   2.179   4.271   3.142
 3096SOL    HW1 9107   2.217   4.212   3.214
 3096SOL    HW2 9108   2.219   4.245   3.054
 3097SOL     OW 9109   3.286   3.938   2.974
 3097SOL    HW1 9110   3.338   3.873   3.029
 3097SOL    HW2 9111   3.237   4.001   3.035
 3098SOL     OW 9112   2.863   3.758   3.016
 3098SOL    HW1 9113   2.800   3.686   2.985
 3098SOL    HW2 9114   2.956   3.722   3.016
 3099SOL     OW 9115   2.632   5.054   2.163
 3099SOL    HW1 9116   2.586   4.967   2.180
 3099SOL    HW2 9117   2.723   5.051   2.204
 3100SOL     OW 9118   3.214   3.776   2.030
 3100SOL    HW1 9119   3.249   3.735   1.946
 3100SOL    HW2 9120   3.124   3.738   2.050
 3101SOL     OW 9121   3.162   4.177   2.553
 3101SOL    HW1 9122   3.103   4.257   2.557
 3101SOL    HW2 9123   3.177   4.142   2.646
 3102SOL     OW 9124   3.455   3.945   2.744
 3102SOL    HW1 9125   3.371   3.944   2.798
 3102SOL    HW2 9126   3.457   4.028   2.688
 3103SOL     OW 9127   1.901   4.801   2.162
 3103SOL    HW1 9128   2.000   4.790   2.153
 3103SOL    HW2 9129   1.861   4.715   2.194
 3104SOL     OW 9130   2.092   4.352   3.837
 3104SOL    HW1 9131   1.999   4.350   3.874
 3104SOL    HW2 9132   2.093   4.313   3.745
 3105SOL     OW 9133   2.087   3.999   4.720
 3105SOL    HW1 9134   2.122   3.982   4.812
 3105SOL    HW2 9135   1.999   3.954   4.708
 3106SOL     OW 9136   1.881   4.092   4.371
 3106SOL    HW1 9137   1.799   4.135   4.410
 3106SOL    HW2 9138   1.853   4.019   4.308
 3107SOL     OW 9139   2.431   4.999   4.889
 3107SOL    HW1 9140   2.338   4.992   4.852
 3107SOL    HW2 9141   2.442   5.088   4.933
 3108SOL     OW 9142   3.417   5.235   4.427
 3108SOL    HW1 9143   3.360   5.219   4.508
 3108SOL    HW2 9144   3.358   5.245   4.347
 3109SOL     OW 9145   2.997   4.427   4.441
 3109SOL    HW1 9146   3.054   4.505   4.416
 3109SOL    HW2 9147   2.937   4.453   4.517
 3110SOL     OW 9148   3.617   4.331   3.955
 3110SOL    HW1 9149   3.605   4.318   3.856
 3110SOL    HW2 9150   3.587   4.250   4.004
 3111SOL     OW 9151   2.630   4.868   4.747
 3111SOL    HW1 9152   2.552   4.885   4.807
 3111SOL    HW2 9153   2.664   4.955   4.711
 3112SOL     OW 9154   2.547   4.736   4.389
 3112SOL    HW1 9155   2.616   4.720   4.459
 3112SOL    HW2 9156   2.474   4.793   4.427
 3113SOL     OW 9157   2.197   5.159   4.785
 3113SOL    HW1 9158   2.119   5.128   4.732
 3113SOL    HW2 9159   2.255   5.217   4.728
 3114SOL     OW 9160   3.465   4.171   4.461
 3114SOL    HW1 9161   3.391   4.217   4.411
 3114SOL    HW2 9162   3.516   4.239   4.514
 3115SOL     OW 9163   2.102   4.815   4.610
 3115SOL    HW1 9164   2.116   4.731   4.662
 3115SOL    HW2 9165   2.047   4.879   4.665
 3116SOL     OW 9166   2.468   4.688   3.847
 3116SOL    HW1 9167   2.475   4.772   3.793
 3116SOL    HW2 9168   2.514   4.701   3.935
 3117SOL     OW 9169   1.984   4.367   4.287
 3117SOL    HW1 9170   1.939   4.279   4.304
 3117SOL    HW2 9171   1.983   4.421   4.371
 3118SOL     OW 9172   3.551   4.646   4.336
 3118SOL    HW1 9173   3.646   4.617   4.344
 3118SOL    HW2 9174   3.543   4.711   4.261
 3119SOL     OW 9175   3.503   4.832   4.156
 3119SOL    HW1 9176   3.589   4.834   4.104
 3119SOL    HW2 9177   3.517   4.879   4.244
 3120SOL     OW 9178   2.671   3.728   4.226
 3120SOL    HW1 9179   2.711   3.819   4.217
 3120SOL    HW2 9180   2.571   3.736   4.232
 3121SOL     OW 9181   2.059   4.700   4.988
 3121SOL    HW1 9182   2.148   4.655   4.974
 3121SOL    HW2 9183   1.986   4.635   4.969
 3122SOL     OW 9184   3.387   4.723   3.914
 3122SOL    HW1 9185   3.324   4.647   3.927
 3122SOL    HW2 9186   3.435   4.741   4.000
 3123SOL     OW 9187   3.328   5.141   4.677
 3123SOL    HW1 9188   3.269   5.147   4.757
 3123SOL    HW2 9189   3.313   5.053   4.631
 3124SOL     OW 9190   2.460   4.453   3.994
 3124SOL    HW1 9191   2.484   4.522   3.926
 3124SOL    HW2 9192   2.382   4.486   4.048
 3125SOL     OW 9193   3.143   4.069   4.668
 3125SOL    HW1 9194   3.057   4.019   4.655
 3125SOL    HW2 9195   3.205   4.015   4.724
 3126SOL     OW 9196   2.853   4.134   4.966
 3126SOL    HW1 9197   2.776   4.168   5.020
 3126SOL    HW2 9198   2.819   4.083   4.887
 3127SOL     OW 9199   2.903   4.425   4.153
 3127SOL    HW1 9200   2.929   4.421   4.249
 3127SOL    HW2 9201   2.818   4.374   4.139
 3128SOL     OW 9202   1.938   4.535   4.513
 3128SOL    HW1 9203   2.037   4.523   4.522
 3128SOL    HW2 9204   1.914   4.630   4.534
 3129SOL     OW 9205   2.727   4.072   3.919
 3129SOL    HW1 9206   2.786   4.135   3.870
 3129SOL    HW2 9207   2.746   3.978   3.890
 3130SOL     OW 9208   3.224   4.868   4.269
 3130SOL    HW1 9209   3.307   4.839   4.221
 3130SOL    HW2 9210   3.175   4.935   4.213
 3131SOL     OW 9211   2.412   3.920   4.609
 3131SOL    HW1 9212   2.407   3.915   4.709
 3131SOL    HW2 9213   2.414   4.016   4.580
 3132SOL     OW 9214   3.657   4.790   4.597
 3132SOL    HW1 9215   3.595   4.775   4.521
 3132SOL    HW2 9216   3.605   4.801   4.682
 3133SOL     OW 9217   2.183   4.667   3.966
 3133SOL    HW1 9218   2.265   4.706   3.924
 3133SOL    HW2 9219   2.156   4.585   3.917
 3134SOL     OW 9220   3.320   4.459   4.452
 3134SOL    HW1 9221   3.315   4.394   4.527
 3134SOL    HW2 9222   3.400   4.518   4.465
 3135SOL     OW 9223   3.494   5.101   3.805
 3135SOL    HW1 9224   3.462   5.195   3.795
 3135SOL    HW2 9225   3.418   5.038   3.793
 3136SOL     OW 9226   3.262   3.831   4.150
 3136SOL    HW1 9227   3.238   3.794   4.060
 3136SOL    HW2 9228   3.361   3.847   4.154
 3137SOL     OW 9229   2.244   4.424   4.204
 3137SOL    HW1 9230   2.289   4.334   4.201
 3137SOL    HW2 9231   2.150   4.413   4.237
 3138SOL     OW 9232   2.476   3.846   3.841
 3138SOL    HW1 9233   2.574   3.824   3.848
 3138SOL    HW2 9234   2.445   3.829   3.748
 3139SOL     OW 9235   2.665   5.126   4.648
 3139SOL    HW1 9236   2.755   5.140   4.606
 3139SOL    HW2 9237   2.594   5.128   4.577
 3140SOL     OW 9238   2.784   4.227   4.623
 3140SOL    HW1 9239   2.759   4.218   4.527
 3140SOL    HW2 9240   2.832   4.145   4.654
 3141SOL     OW 9241   2.401   3.788   4.236
 3141SOL    HW1 9242   2.320   3.789   4.294
 3141SOL    HW2 9243   2.404   3.871   4.181
 3142SOL     OW 9244   3.296   4.912   3.765
 3142SOL    HW1 9245   3.328   4.836   3.822
 3142SOL    HW2 9246   3.204   4.939   3.795
 3143SOL     OW 9247   2.159   3.759   3.895
 3143SOL    HW1 9248   2.208   3.843   3.874
 3143SOL    HW2 9249   2.221   3.694   3.940
 3144SOL     OW 9250   2.797   3.960   4.204
 3144SOL    HW1 9251   2.749   4.001   4.126
 3144SOL    HW2 9252   2.896   3.958   4.185
 3145SOL     OW 9253   3.089   5.294   4.517
 3145SOL    HW1 9254   3.110   5.368   4.452
 3145SOL    HW2 9255   3.157   5.294   4.590
 3146SOL     OW 9256   2.321   4.876   4.465
 3146SOL    HW1 9257   2.250   4.849   4.530
 3146SOL    HW2 9258   2.295   4.848   4.372
 3147SOL     OW 9259   2.894   4.273   3.740
 3147SOL    HW1 9260   2.853   4.355   3.701
 3147SOL    HW2 9261   2.958   4.299   3.813
 3148SOL     OW 9262   2.423   3.946   4.871
 3148SOL    HW1 9263   2.461   3.862   4.908
 3148SOL    HW2 9264   2.335   3.965   4.915
 3149SOL     OW 9265   2.728   4.178   4.366
 3149SOL    HW1 9266   2.696   4.250   4.304
 3149SOL    HW2 9267   2.752   4.097   4.313
 3150SOL     OW 9268   2.879   3.763   4.477
 3150SOL    HW1 9269   2.807   3.768   4.408
 3150SOL    HW2 9270   2.855   3.694   4.546
 3151SOL     OW 9271   3.291   4.897   4.591
 3151SOL    HW1 9272   3.236   4.813   4.584
 3151SOL    HW2 9273   3.317   4.926   4.499
 3152SOL     OW 9274   3.328   4.314   4.716
 3152SOL    HW1 9275   3.298   4.219   4.723
 3152SOL    HW2 9276   3.401   4.330   4.782
 3153SOL     OW 9277   3.719   4.557   4.101
 3153SOL    HW1 9278   3.761   4.493   4.165
 3153SOL    HW2 9279   3.681   4.506   4.023
 3154SOL     OW 9280   3.526   5.004   4.381
 3154SOL    HW1 9281   3.625   5.012   4.395
 3154SOL    HW2 9282   3.481   5.088   4.412
 3155SOL     OW 9283   3.252   4.299   3.802
 3155SOL    HW1 9284   3.198   4.278   3.883
 3155SOL    HW2 9285   3.343   4.258   3.811
 3156SOL     OW 9286   2.389   3.980   4.052
 3156SOL    HW1 9287   2.416   3.921   3.977
 3156SOL    HW2 9288   2.389   4.075   4.021
 3157SOL     OW 9289   3.500   4.823   4.803
 3157SOL    HW1 9290   3.505   4.904   4.862
 3157SOL    HW2 9291   3.414   4.825   4.752
 3158SOL     OW 9292   2.567   4.774   4.092
 3158SOL    HW1 9293   2.553   4.781   4.191
 3158SOL    HW2 9294   2.651   4.723   4.074
 3159SOL     OW 9295   2.272   4.537   4.975
 3159SOL    HW1 9296   2.358   4.549   5.025
 3159SOL    HW2 9297   2.230   4.450   5.002
 3160SOL     OW 9298   3.136   4.110   4.986
 3160SOL    HW1 9299   3.157   4.184   5.050
 3160SOL    HW2 9300   3.047   4.127   4.943
 3161SOL     OW 9301   2.229   4.824   4.225
 3161SOL    HW1 9302   2.222   4.907   4.169
 3161SOL    HW2 9303   2.233   4.744   4.165
 3162SOL     OW 9304   2.428   4.261   4.589
 3162SOL    HW1 9305   2.440   4.327   4.515
 3162SOL    HW2 9306   2.474   4.295   4.672
 3163SOL     OW 9307   3.444   4.363   4.196
 3163SOL    HW1 9308   3.413   4.424   4.269
 3163SOL    HW2 9309   3.494   4.415   4.127
 3164SOL     OW 9310   2.435   4.594   4.753
 3164SOL    HW1 9311   2.479   4.683   4.744
 3164SOL    HW2 9312   2.372   4.594   4.830
 3165SOL     OW 9313   3.222   4.586   4.769
 3165SOL    HW1 9314   3.147   4.586   4.703
 3165SOL    HW2 9315   3.259   4.494   4.778
 3166SOL     OW 9316   3.071   4.249   3.999
 3166SOL    HW1 9317   3.084   4.165   4.053
 3166SOL    HW2 9318   3.042   4.323   4.059
 3167SOL     OW 9319   2.169   3.937   4.955
 3167SOL    HW1 9320   2.146   3.974   5.045
 3167SOL    HW2 9321   2.139   3.842   4.949
 3168SOL     OW 9322   2.594   4.358   4.788
 3168SOL    HW1 9323   2.653   4.332   4.712
 3168SOL    HW2 9324   2.566   4.454   4.777
 3169SOL     OW 9325   2.169   3.787   4.342
 3169SOL    HW1 9326   2.158   3.881   4.375
 3169SOL    HW2 9327   2.164   3.724   4.419
 3170SOL     OW 9328   3.484   4.091   4.098
 3170SOL    HW1 9329   3.486   4.015   4.162
 3170SOL    HW2 9330   3.436   4.168   4.138
 3171SOL     OW 9331   2.885   4.490   4.690
 3171SOL    HW1 9332   2.900   4.511   4.786
 3171SOL    HW2 9333   2.855   4.395   4.681
 3172SOL     OW 9334   3.402   3.998   3.849
 3172SOL    HW1 9335   3.341   3.923   3.872
 3172SOL    HW2 9336   3.424   4.050   3.932
 3173SOL     OW 9337   3.165   4.562   3.766
 3173SOL    HW1 9338   3.199   4.469   3.781
 3173SOL    HW2 9339   3.183   4.589   3.671
 3174SOL     OW 9340   2.181   4.534   4.673
 3174SOL    HW1 9341   2.274   4.570   4.678
 3174SOL    HW2 9342   2.175   4.449   4.725
 3175SOL     OW 9343   2.201   4.233   4.730
 3175SOL    HW1 9344   2.149   4.150   4.713
 3175SOL    HW2 9345   2.278   4.238   4.666
 3176SOL     OW 9346   3.022   3.931   5.201
 3176SOL    HW1 9347   3.022   3.995   5.278
 3176SOL    HW2 9348   3.050   3.979   5.118
 3177SOL     OW 9349   1.870   5.050   3.924
 3177SOL    HW1 9350   1.777   5.071   3.893
 3177SOL    HW2 9351   1.880   4.951   3.937
 3178SOL     OW 9352   2.864   4.520   4.962
 3178SOL    HW1 9353   2.905   4.488   5.048
 3178SOL    HW2 9354   2.768   4.493   4.959
 3179SOL     OW 9355   1.902   4.268   4.838
 3179SOL    HW1 9356   1.987   4.235   4.797
 3179SOL    HW2 9357   1.915   4.283   4.936
 3180SOL     OW 9358   2.677   4.296   4.049
 3180SOL    HW1 9359   2.684   4.207   4.003
 3180SOL    HW2 9360   2.583   4.330   4.041
 3181SOL     OW 9361   3.519   4.328   4.930
 3181SOL    HW1 9362   3.481   4.259   4.992
 3181SOL    HW2 9363   3.601   4.292   4.886
 3182SOL     OW 9364   2.533   4.188   4.993
 3182SOL    HW1 9365   2.499   4.099   4.963
 3182SOL    HW2 9366   2.559   4.242   4.913
 3183SOL     OW 9367   2.335   4.224   3.915
 3183SOL    HW1 9368   2.396   4.304   3.919
 3183SOL    HW2 9369   2.240   4.255   3.922
 3184SOL     OW 9370   3.209   4.783   4.958
 3184SOL    HW1 9371   3.233   4.720   4.884
 3184SOL    HW2 9372   3.119   4.823   4.940
 3185SOL     OW 9373   3.164   4.579   4.033
 3185SOL    HW1 9374   3.078   4.548   4.075
 3185SOL    HW2 9375   3.160   4.565   3.934
 3186SOL     OW 9376   1.945   4.982   4.746
 3186SOL    HW1 9377   1.940   4.981   4.846
 3186SOL    HW2 9378   1.862   4.941   4.708
 3187SOL     OW 9379   3.588   3.859   4.247
 3187SOL    HW1 9380   3.661   3.842   4.180
 3187SOL    HW2 9381   3.557   3.772   4.285
 3188SOL     OW 9382   3.142   4.651   4.396
 3188SOL    HW1 9383   3.202   4.570   4.398
 3188SOL    HW2 9384   3.182   4.720   4.336
 3189SOL     OW 9385   2.692   4.997   5.146
 3189SOL    HW1 9386   2.687   5.030   5.241
 3189SOL    HW2 9387   2.606   5.016   5.100
 3190SOL     OW 9388   3.703   3.899   4.687
 3190SOL    HW1 9389   3.742   3.814   4.651
 3190SOL    HW2 9390   3.605   3.901   4.668
 3191SOL     OW 9391   2.125   4.050   4.444
 3191SOL    HW1 9392   2.046   4.101   4.410
 3191SOL    HW2 9393   2.116   4.035   4.542
 3192SOL     OW 9394   3.056   5.336   3.755
 3192SOL    HW1 9395   3.062   5.243   3.792
 3192SOL    HW2 9396   2.997   5.336   3.675
 3193SOL     OW 9397   2.684   4.726   5.096
 3193SOL    HW1 9398   2.724   4.725   5.004
 3193SOL    HW2 9399   2.694   4.818   5.136
 3194SOL     OW 9400   2.778   4.634   4.015
 3194SOL    HW1 9401   2.841   4.672   3.947
 3194SOL    HW2 9402   2.818   4.551   4.054
 3195SOL     OW 9403   2.901   4.822   4.420
 3195SOL    HW1 9404   2.831   4.775   4.474
 3195SOL    HW2 9405   2.960   4.754   4.377
 3196SOL     OW 9406   2.876   3.960   4.695
 3196SOL    HW1 9407   2.868   3.924   4.602
 3196SOL    HW2 9408   2.874   3.884   4.760
 3197SOL     OW 9409   3.571   4.109   5.105
 3197SOL    HW1 9410   3.644   4.178   5.109
 3197SOL    HW2 9411   3.599   4.034   5.046
 3198SOL     OW 9412   1.937   4.069   3.757
 3198SOL    HW1 9413   1.845   4.041   3.728
 3198SOL    HW2 9414   1.968   4.146   3.701
 3199SOL     OW 9415   1.934   3.890   4.042
 3199SOL    HW1 9416   1.917   3.973   3.988
 3199SOL    HW2 9417   2.024   3.853   4.020
 3200SOL     OW 9418   3.312   4.944   5.357
 3200SOL    HW1 9419   3.303   4.934   5.456
 3200SOL    HW2 9420   3.408   4.937   5.331
 3201SOL     OW 9421   3.536   4.607   4.978
 3201SOL    HW1 9422   3.509   4.518   4.941
 3201SOL    HW2 9423   3.537   4.675   4.905
 3202SOL     OW 9424   3.087   4.049   4.173
 3202SOL    HW1 9425   3.152   3.975   4.162
 3202SOL    HW2 9426   3.107   4.099   4.257
 3203SOL     OW 9427   2.456   4.469   4.376
 3203SOL    HW1 9428   2.506   4.554   4.357
 3203SOL    HW2 9429   2.368   4.471   4.328
 3204SOL     OW 9430   3.592   4.658   5.241
 3204SOL    HW1 9431   3.630   4.749   5.256
 3204SOL    HW2 9432   3.584   4.641   5.142
 3205SOL     OW 9433   2.721   4.680   4.585
 3205SOL    HW1 9434   2.775   4.611   4.633
 3205SOL    HW2 9435   2.689   4.749   4.651
 3206SOL     OW 9436   2.945   4.708   3.811
 3206SOL    HW1 9437   2.922   4.761   3.729
 3206SOL    HW2 9438   3.026   4.652   3.792
 3207SOL     OW 9439   1.941   4.964   4.377
 3207SOL    HW1 9440   1.940   4.917   4.465
 3207SOL    HW2 9441   2.023   4.936   4.326
 3208SOL     OW 9442   3.686   3.916   4.951
 3208SOL    HW1 9443   3.682   3.826   4.995
 3208SOL    HW2 9444   3.689   3.905   4.852
 3209SOL     OW 9445   2.290   4.148   4.244
 3209SOL    HW1 9446   2.320   4.076   4.182
 3209SOL    HW2 9447   2.251   4.108   4.327
 3210SOL     OW 9448   3.286   3.938   4.836
 3210SOL    HW1 9449   3.338   3.873   4.891
 3210SOL    HW2 9450   3.237   4.001   4.897
 3211SOL     OW 9451   2.863   3.758   4.878
 3211SOL    HW1 9452   2.800   3.686   4.847
 3211SOL    HW2 9453   2.956   3.722   4.878
 3212SOL     OW 9454   2.632   5.054   4.025
 3212SOL    HW1 9455   2.586   4.967   4.042
 3212SOL    HW2 9456   2.723   5.051   4.066
 3213SOL     OW 9457   3.214   3.776   3.892
 3213SOL    HW1 9458   3.249   3.735   3.808
 3213SOL    HW2 9459   3.124   3.738   3.912
 3214SOL     OW 9460   3.162   4.177   4.415
 3214SOL    HW1 9461   3.103   4.257   4.419
 3214SOL    HW2 9462   3.177   4.142   4.508
 3215SOL     OW 9463   3.455   3.945   4.606
 3215SOL    HW1 9464   3.371   3.944   4.660
 3215SOL    HW2 9465   3.457   4.028   4.550
 3216SOL     OW 9466   1.901   4.801   4.024
 3216SOL    HW1 9467   2.000   4.790   4.015
 3216SOL    HW2 9468   1.861   4.715   4.056
 3217SOL     OW 9469   3.954   0.628   0.113
 3217SOL    HW1 9470   3.861   0.626   0.150
 3217SOL    HW2 9471   3.955   0.589   0.021
 3218SOL     OW 9472   3.949   0.275   0.996
 3218SOL    HW1 9473   3.984   0.258   1.088
 3218SOL    HW2 9474   3.861   0.230   0.984
 3219SOL     OW 9475   3.743   0.368   0.647
 3219SOL    HW1 9476   3.661   0.411   0.686
 3219SOL    HW2 9477   3.715   0.295   0.584
 3220SOL     OW 9478   4.293   1.275   1.165
 3220SOL    HW1 9479   4.200   1.268   1.128
 3220SOL    HW2 9480   4.304   1.364   1.209
 3221SOL     OW 9481   4.859   0.703   0.717
 3221SOL    HW1 9482   4.916   0.781   0.692
 3221SOL    HW2 9483   4.799   0.729   0.793
 3222SOL     OW 9484   4.492   1.144   1.023
 3222SOL    HW1 9485   4.414   1.161   1.083
 3222SOL    HW2 9486   4.526   1.231   0.987
 3223SOL     OW 9487   4.574   0.798   1.823
 3223SOL    HW1 9488   4.570   0.874   1.888
 3223SOL    HW2 9489   4.596   0.834   1.732
 3224SOL     OW 9490   4.409   1.012   0.665
 3224SOL    HW1 9491   4.478   0.996   0.735
 3224SOL    HW2 9492   4.336   1.069   0.703
 3225SOL     OW 9493   4.410   1.161   1.803
 3225SOL    HW1 9494   4.470   1.240   1.817
 3225SOL    HW2 9495   4.324   1.192   1.762
 3226SOL     OW 9496   4.059   1.435   1.061
 3226SOL    HW1 9497   3.981   1.404   1.008
 3226SOL    HW2 9498   4.117   1.493   1.004
 3227SOL     OW 9499   4.162   0.392   1.499
 3227SOL    HW1 9500   4.244   0.336   1.508
 3227SOL    HW2 9501   4.081   0.334   1.503
 3228SOL     OW 9502   3.955   1.713   0.483
 3228SOL    HW1 9503   3.989   1.790   0.537
 3228SOL    HW2 9504   3.999   1.713   0.393
 3229SOL     OW 9505   4.851   1.341   1.690
 3229SOL    HW1 9506   4.898   1.341   1.778
 3229SOL    HW2 9507   4.803   1.254   1.679
 3230SOL     OW 9508   3.954   1.434   0.538
 3230SOL    HW1 9509   3.928   1.530   0.538
 3230SOL    HW2 9510   3.883   1.380   0.583
 3231SOL     OW 9511   3.964   1.091   0.886
 3231SOL    HW1 9512   3.978   1.007   0.938
 3231SOL    HW2 9513   3.909   1.155   0.941
 3232SOL     OW 9514   4.344   1.786   1.439
 3232SOL    HW1 9515   4.252   1.769   1.474
 3232SOL    HW2 9516   4.372   1.878   1.465
 3233SOL     OW 9517   4.330   0.964   0.123
 3233SOL    HW1 9518   4.337   1.048   0.069
 3233SOL    HW2 9519   4.376   0.977   0.211
 3234SOL     OW 9520   3.846   0.643   0.563
 3234SOL    HW1 9521   3.801   0.555   0.580
 3234SOL    HW2 9522   3.845   0.697   0.647
 3235SOL     OW 9523   3.751   1.596   0.117
 3235SOL    HW1 9524   3.732   1.500   0.138
 3235SOL    HW2 9525   3.718   1.654   0.192
 3236SOL     OW 9526   3.837   0.737   1.597
 3236SOL    HW1 9527   3.925   0.724   1.642
 3236SOL    HW2 9528   3.824   0.834   1.575
 3237SOL     OW 9529   4.337   1.365   0.726
 3237SOL    HW1 9530   4.288   1.278   0.735
 3237SOL    HW2 9531   4.314   1.408   0.639
 3238SOL     OW 9532   5.017   1.228   1.423
 3238SOL    HW1 9533   5.054   1.155   1.365
 3238SOL    HW2 9534   5.069   1.233   1.508
 3239SOL     OW 9535   4.533   0.004   0.502
 3239SOL    HW1 9536   4.573   0.095   0.493
 3239SOL    HW2 9537   4.433   0.012   0.508
 3240SOL     OW 9538   3.921   0.976   1.264
 3240SOL    HW1 9539   4.010   0.931   1.250
 3240SOL    HW2 9540   3.848   0.911   1.245
 3241SOL     OW 9541   4.911   1.792   1.616
 3241SOL    HW1 9542   4.935   1.852   1.540
 3241SOL    HW2 9543   4.918   1.697   1.586
 3242SOL     OW 9544   4.041   0.251   1.801
 3242SOL    HW1 9545   4.112   0.322   1.807
 3242SOL    HW2 9546   3.953   0.290   1.829
 3243SOL     OW 9547   4.322   0.729   0.270
 3243SOL    HW1 9548   4.346   0.798   0.202
 3243SOL    HW2 9549   4.244   0.762   0.324
 3244SOL     OW 9550   5.005   0.345   0.944
 3244SOL    HW1 9551   4.919   0.295   0.931
 3244SOL    HW2 9552   5.067   0.291   1.000
 3245SOL     OW 9553   4.531   0.605   1.465
 3245SOL    HW1 9554   4.484   0.602   1.554
 3245SOL    HW2 9555   4.480   0.550   1.399
 3246SOL     OW 9556   4.697   0.890   1.572
 3246SOL    HW1 9557   4.743   0.806   1.543
 3246SOL    HW2 9558   4.641   0.924   1.497
 3247SOL     OW 9559   4.715   0.410   1.242
 3247SOL    HW1 9560   4.638   0.444   1.296
 3247SOL    HW2 9561   4.681   0.359   1.163
 3248SOL     OW 9562   4.765   0.701   0.429
 3248SOL    HW1 9563   4.791   0.697   0.525
 3248SOL    HW2 9564   4.680   0.650   0.415
 3249SOL     OW 9565   3.800   0.811   0.789
 3249SOL    HW1 9566   3.899   0.799   0.798
 3249SOL    HW2 9567   3.776   0.906   0.810
 3250SOL     OW 9568   3.854   1.821   1.571
 3250SOL    HW1 9569   3.844   1.806   1.670
 3250SOL    HW2 9570   3.768   1.857   1.535
 3251SOL     OW 9571   4.589   0.348   0.195
 3251SOL    HW1 9572   4.648   0.411   0.146
 3251SOL    HW2 9573   4.608   0.254   0.166
 3252SOL     OW 9574   4.274   0.196   0.885
 3252SOL    HW1 9575   4.269   0.191   0.985
 3252SOL    HW2 9576   4.276   0.292   0.856
 3253SOL     OW 9577   4.732   1.456   0.477
 3253SOL    HW1 9578   4.686   1.528   0.425
 3253SOL    HW2 9579   4.728   1.476   0.575
 3254SOL     OW 9580   4.075   1.801   0.853
 3254SOL    HW1 9581   4.125   1.715   0.859
 3254SOL    HW2 9582   4.140   1.878   0.850
 3255SOL     OW 9583   4.951   1.550   1.506
 3255SOL    HW1 9584   4.957   1.473   1.570
 3255SOL    HW2 9585   4.899   1.524   1.426
 3256SOL     OW 9586   4.045   0.943   0.242
 3256SOL    HW1 9587   4.127   0.982   0.200
 3256SOL    HW2 9588   4.018   0.861   0.193
 3257SOL     OW 9589   4.185   1.266   1.727
 3257SOL    HW1 9590   4.135   1.267   1.641
 3257SOL    HW2 9591   4.122   1.248   1.803
 3258SOL     OW 9592   4.835   1.776   0.237
 3258SOL    HW1 9593   4.775   1.714   0.287
 3258SOL    HW2 9594   4.866   1.732   0.152
 3259SOL     OW 9595   3.926   0.285   1.498
 3259SOL    HW1 9596   3.846   0.345   1.485
 3259SOL    HW2 9597   3.916   0.236   1.584
 3260SOL     OW 9598   5.356   1.377   0.081
 3260SOL    HW1 9599   5.324   1.471   0.071
 3260SOL    HW2 9600   5.280   1.314   0.069
 3261SOL     OW 9601   4.188   1.743   0.323
 3261SOL    HW1 9602   4.221   1.782   0.409
 3261SOL    HW2 9603   4.264   1.736   0.258
 3262SOL     OW 9604   3.973   1.785   1.241
 3262SOL    HW1 9605   4.030   1.720   1.291
 3262SOL    HW2 9606   3.957   1.752   1.148
 3263SOL     OW 9607   4.664   1.698   0.904
 3263SOL    HW1 9608   4.744   1.641   0.925
 3263SOL    HW2 9609   4.615   1.658   0.827
 3264SOL     OW 9610   4.106   0.700   0.480
 3264SOL    HW1 9611   4.151   0.610   0.477
 3264SOL    HW2 9612   4.012   0.689   0.513
 3265SOL     OW 9613   4.338   0.122   0.117
 3265SOL    HW1 9614   4.436   0.100   0.124
 3265SOL    HW2 9615   4.307   0.105   0.024
 3266SOL     OW 9616   4.505   0.264   1.749
 3266SOL    HW1 9617   4.572   0.203   1.792
 3266SOL    HW2 9618   4.432   0.283   1.814
 3267SOL     OW 9619   4.612   1.514   1.195
 3267SOL    HW1 9620   4.589   1.489   1.101
 3267SOL    HW2 9621   4.673   1.445   1.234
 3268SOL     OW 9622   4.527   1.402   0.924
 3268SOL    HW1 9623   4.617   1.416   0.882
 3268SOL    HW2 9624   4.456   1.404   0.853
 3269SOL     OW 9625   4.646   0.503   0.899
 3269SOL    HW1 9626   4.621   0.494   0.803
 3269SOL    HW2 9627   4.694   0.421   0.930
 3270SOL     OW 9628   4.263   0.064   0.512
 3270SOL    HW1 9629   4.182   0.065   0.570
 3270SOL    HW2 9630   4.266   0.147   0.457
 3271SOL     OW 9631   4.021   0.035   0.171
 3271SOL    HW1 9632   4.070   0.119   0.150
 3271SOL    HW2 9633   4.083  -0.030   0.216
 3272SOL     OW 9634   4.659   0.236   0.480
 3272SOL    HW1 9635   4.611   0.277   0.402
 3272SOL    HW2 9636   4.758   0.234   0.461
 3273SOL     OW 9637   4.800   0.683   1.464
 3273SOL    HW1 9638   4.720   0.622   1.467
 3273SOL    HW2 9639   4.881   0.630   1.440
 3274SOL     OW 9640   4.951   1.570   0.793
 3274SOL    HW1 9641   4.972   1.644   0.728
 3274SOL    HW2 9642   5.019   1.570   0.866
 3275SOL     OW 9643   4.183   1.152   0.741
 3275SOL    HW1 9644   4.112   1.125   0.806
 3275SOL    HW2 9645   4.157   1.124   0.648
 3276SOL     OW 9646   4.995   1.797   0.591
 3276SOL    HW1 9647   5.039   1.861   0.527
 3276SOL    HW2 9648   4.945   1.849   0.661
 3277SOL     OW 9649   4.756   0.549   0.016
 3277SOL    HW1 9650   4.715   0.631  -0.023
 3277SOL    HW2 9651   4.820   0.575   0.089
 3278SOL     OW 9652   3.802   0.556   1.386
 3278SOL    HW1 9653   3.894   0.555   1.345
 3278SOL    HW2 9654   3.796   0.630   1.453
 3279SOL     OW 9655   4.285   0.222   1.147
 3279SOL    HW1 9656   4.323   0.138   1.184
 3279SOL    HW2 9657   4.197   0.241   1.191
 3280SOL     OW 9658   4.590   0.454   0.642
 3280SOL    HW1 9659   4.558   0.526   0.580
 3280SOL    HW2 9660   4.614   0.373   0.589
 3281SOL     OW 9661   4.741   0.039   0.753
 3281SOL    HW1 9662   4.669   0.044   0.684
 3281SOL    HW2 9663   4.717  -0.030   0.822
 3282SOL     OW 9664   4.212   1.385   0.174
 3282SOL    HW1 9665   4.125   1.370   0.221
 3282SOL    HW2 9666   4.195   1.411   0.079
 3283SOL     OW 9667   5.388   1.280   0.657
 3283SOL    HW1 9668   5.487   1.288   0.671
 3283SOL    HW2 9669   5.343   1.364   0.688
 3284SOL     OW 9670   4.251   0.256   0.328
 3284SOL    HW1 9671   4.278   0.197   0.253
 3284SOL    HW2 9672   4.251   0.351   0.297
 3285SOL     OW 9673   4.788   1.347   1.340
 3285SOL    HW1 9674   4.708   1.324   1.395
 3285SOL    HW2 9675   4.871   1.321   1.389
 3286SOL     OW 9676   4.835   1.195   1.100
 3286SOL    HW1 9677   4.795   1.239   1.181
 3286SOL    HW2 9678   4.794   1.232   1.017
 3287SOL     OW 9679   4.639   0.089   1.402
 3287SOL    HW1 9680   4.664   0.069   1.307
 3287SOL    HW2 9681   4.711   0.145   1.444
 3288SOL     OW 9682   4.704   1.116   1.719
 3288SOL    HW1 9683   4.605   1.122   1.729
 3288SOL    HW2 9684   4.727   1.036   1.663
 3289SOL     OW 9685   4.429   1.050   0.368
 3289SOL    HW1 9686   4.415   1.057   0.467
 3289SOL    HW2 9687   4.513   0.999   0.350
 3290SOL     OW 9688   4.134   0.813   1.251
 3290SOL    HW1 9689   4.220   0.825   1.301
 3290SOL    HW2 9690   4.092   0.726   1.278
 3291SOL     OW 9691   4.998   0.386   1.262
 3291SOL    HW1 9692   5.019   0.460   1.326
 3291SOL    HW2 9693   4.909   0.403   1.219
 3292SOL     OW 9694   3.788   1.564   1.331
 3292SOL    HW1 9695   3.742   1.646   1.297
 3292SOL    HW2 9696   3.886   1.583   1.340
 3293SOL     OW 9697   4.091   1.100   0.501
 3293SOL    HW1 9698   4.084   1.183   0.445
 3293SOL    HW2 9699   4.095   1.020   0.441
 3294SOL     OW 9700   4.290   0.537   0.865
 3294SOL    HW1 9701   4.302   0.603   0.791
 3294SOL    HW2 9702   4.336   0.571   0.948
 3295SOL     OW 9703   4.976   1.348   0.388
 3295SOL    HW1 9704   5.026   1.425   0.428
 3295SOL    HW2 9705   4.881   1.350   0.420
 3296SOL     OW 9706   4.078   1.510   1.329
 3296SOL    HW1 9707   4.057   1.466   1.242
 3296SOL    HW2 9708   4.175   1.536   1.332
 3297SOL     OW 9709   4.126   0.751   1.598
 3297SOL    HW1 9710   4.194   0.806   1.551
 3297SOL    HW2 9711   4.166   0.663   1.625
 3298SOL     OW 9712   4.737   0.105   1.770
 3298SOL    HW1 9713   4.743   0.190   1.718
 3298SOL    HW2 9714   4.769   0.029   1.713
 3299SOL     OW 9715   4.228   0.050   1.740
 3299SOL    HW1 9716   4.186  -0.007   1.670
 3299SOL    HW2 9717   4.162   0.119   1.772
 3300SOL     OW 9718   4.297   0.870   1.029
 3300SOL    HW1 9719   4.341   0.959   1.020
 3300SOL    HW2 9720   4.234   0.870   1.106
 3301SOL     OW 9721   5.084   0.862   1.045
 3301SOL    HW1 9722   5.009   0.862   0.979
 3301SOL    HW2 9723   5.121   0.770   1.054
 3302SOL     OW 9724   4.933   0.525   0.275
 3302SOL    HW1 9725   4.946   0.441   0.329
 3302SOL    HW2 9726   4.904   0.599   0.335
 3303SOL     OW 9727   4.031   0.213   1.231
 3303SOL    HW1 9728   4.008   0.250   1.321
 3303SOL    HW2 9729   4.001   0.118   1.225
 3304SOL     OW 9730   3.761   1.310   1.282
 3304SOL    HW1 9731   3.814   1.261   1.350
 3304SOL    HW2 9732   3.783   1.408   1.287
 3305SOL     OW 9733   4.456   0.634   1.064
 3305SOL    HW1 9734   4.515   0.608   0.988
 3305SOL    HW2 9735   4.428   0.730   1.053
 3306SOL     OW 9736   4.031   0.063   0.618
 3306SOL    HW1 9737   4.020   0.157   0.651
 3306SOL    HW2 9738   4.026   0.000   0.695
 3307SOL     OW 9739   5.346   0.367   0.374
 3307SOL    HW1 9740   5.348   0.291   0.438
 3307SOL    HW2 9741   5.298   0.444   0.414
 3308SOL     OW 9742   4.747   0.766   0.966
 3308SOL    HW1 9743   4.762   0.787   1.062
 3308SOL    HW2 9744   4.717   0.671   0.957
 3309SOL     OW 9745   4.704   1.573   1.700
 3309SOL    HW1 9746   4.684   1.617   1.612
 3309SOL    HW2 9747   4.743   1.482   1.684
 3310SOL     OW 9748   4.074   0.898   1.804
 3310SOL    HW1 9749   4.150   0.942   1.852
 3310SOL    HW2 9750   4.109   0.851   1.722
 3311SOL     OW 9751   5.027   0.838   0.042
 3311SOL    HW1 9752   5.061   0.745   0.057
 3311SOL    HW2 9753   5.045   0.865  -0.053
 3312SOL     OW 9754   4.792   1.333   0.849
 3312SOL    HW1 9755   4.799   1.249   0.794
 3312SOL    HW2 9756   4.854   1.402   0.813
 3313SOL     OW 9757   4.043   0.810   0.949
 3313SOL    HW1 9758   4.136   0.846   0.954
 3313SOL    HW2 9759   4.037   0.725   1.001
 3314SOL     OW 9760   4.063   0.509   1.006
 3314SOL    HW1 9761   4.011   0.426   0.989
 3314SOL    HW2 9762   4.140   0.514   0.942
 3315SOL     OW 9763   4.862   0.380   1.678
 3315SOL    HW1 9764   4.817   0.443   1.742
 3315SOL    HW2 9765   4.955   0.411   1.661
 3316SOL     OW 9766   4.884   0.207   1.477
 3316SOL    HW1 9767   4.884   0.271   1.554
 3316SOL    HW2 9768   4.912   0.255   1.394
 3317SOL     OW 9769   3.812   1.801   0.927
 3317SOL    HW1 9770   3.770   1.715   0.900
 3317SOL    HW2 9771   3.906   1.804   0.893
 3318SOL     OW 9772   4.228   1.568   0.910
 3318SOL    HW1 9773   4.294   1.642   0.919
 3318SOL    HW2 9774   4.272   1.489   0.868
 3319SOL     OW 9775   4.726   0.796   1.238
 3319SOL    HW1 9776   4.767   0.764   1.324
 3319SOL    HW2 9777   4.630   0.769   1.235
 3320SOL     OW 9778   3.764   0.544   1.114
 3320SOL    HW1 9779   3.849   0.511   1.073
 3320SOL    HW2 9780   3.777   0.559   1.212
 3321SOL     OW 9781   3.913   0.520   1.722
 3321SOL    HW1 9782   3.972   0.480   1.652
 3321SOL    HW2 9783   3.855   0.591   1.681
 3322SOL     OW 9784   4.539   0.572   0.325
 3322SOL    HW1 9785   4.546   0.483   0.279
 3322SOL    HW2 9786   4.445   0.606   0.317
 3323SOL     OW 9787   3.976   1.564   1.744
 3323SOL    HW1 9788   3.946   1.621   1.820
 3323SOL    HW2 9789   3.969   1.467   1.770
 3324SOL     OW 9790   4.395   0.464   1.269
 3324SOL    HW1 9791   4.361   0.375   1.239
 3324SOL    HW2 9792   4.421   0.518   1.189
 3325SOL     OW 9793   4.654   1.678   1.465
 3325SOL    HW1 9794   4.630   1.660   1.370
 3325SOL    HW2 9795   4.684   1.772   1.475
 3326SOL     OW 9796   4.197   0.500   0.191
 3326SOL    HW1 9797   4.258   0.580   0.195
 3326SOL    HW2 9798   4.102   0.531   0.198
 3327SOL     OW 9799   3.883   1.137   1.466
 3327SOL    HW1 9800   3.905   1.076   1.542
 3327SOL    HW2 9801   3.893   1.088   1.380
 3328SOL     OW 9802   5.071   1.059   1.234
 3328SOL    HW1 9803   5.095   0.996   1.160
 3328SOL    HW2 9804   4.981   1.099   1.216
 3329SOL     OW 9805   4.976   1.731   1.128
 3329SOL    HW1 9806   5.060   1.736   1.074
 3329SOL    HW2 9807   4.953   1.635   1.146
 3330SOL     OW 9808   3.807   1.258   1.022
 3330SOL    HW1 9809   3.802   1.257   1.122
 3330SOL    HW2 9810   3.724   1.217   0.984
 3331SOL     OW 9811   4.412   1.662   1.716
 3331SOL    HW1 9812   4.356   1.743   1.725
 3331SOL    HW2 9813   4.464   1.666   1.630
 3332SOL     OW 9814   4.627   0.086   0.133
 3332SOL    HW1 9815   4.678   0.087   0.047
 3332SOL    HW2 9816   4.683   0.044   0.204
 3333SOL     OW 9817   5.112   1.573   0.477
 3333SOL    HW1 9818   5.179   1.585   0.403
 3333SOL    HW2 9819   5.072   1.662   0.500
 3334SOL     OW 9820   3.854   1.794   1.851
 3334SOL    HW1 9821   3.813   1.720   1.904
 3334SOL    HW2 9822   3.918   1.845   1.909
 3335SOL     OW 9823   5.004   0.927   0.672
 3335SOL    HW1 9824   5.064   0.846   0.674
 3335SOL    HW2 9825   5.044   0.996   0.612
 3336SOL     OW 9826   4.554   1.273   1.422
 3336SOL    HW1 9827   4.549   1.306   1.517
 3336SOL    HW2 9828   4.468   1.292   1.376
 3337SOL     OW 9829   4.396   1.616   0.154
 3337SOL    HW1 9830   4.405   1.626   0.055
 3337SOL    HW2 9831   4.356   1.527   0.175
 3338SOL     OW 9832   3.987   0.326   0.720
 3338SOL    HW1 9833   3.908   0.377   0.686
 3338SOL    HW2 9834   3.978   0.311   0.818
 3339SOL     OW 9835   4.918   1.612   0.031
 3339SOL    HW1 9836   4.924   1.519   0.068
 3339SOL    HW2 9837   4.859   1.612  -0.049
 3340SOL     OW 9838   4.546   1.002   1.372
 3340SOL    HW1 9839   4.586   1.001   1.280
 3340SOL    HW2 9840   4.556   1.094   1.412
 3341SOL     OW 9841   4.640   0.910   0.291
 3341SOL    HW1 9842   4.703   0.948   0.223
 3341SOL    HW2 9843   4.680   0.827   0.330
 3342SOL     OW 9844   4.096   1.288   1.490
 3342SOL    HW1 9845   4.083   1.381   1.456
 3342SOL    HW2 9846   4.012   1.236   1.477
 3343SOL     OW 9847   4.763   1.098   0.696
 3343SOL    HW1 9848   4.693   1.051   0.750
 3343SOL    HW2 9849   4.822   1.030   0.653
 3344SOL     OW 9850   4.738   0.236   0.971
 3344SOL    HW1 9851   4.730   0.200   0.878
 3344SOL    HW2 9852   4.736   0.160   1.036
 3345SOL     OW 9853   4.314   1.487   0.491
 3345SOL    HW1 9854   4.356   1.429   0.421
 3345SOL    HW2 9855   4.270   1.566   0.447
 3346SOL     OW 9856   3.979   1.348   0.290
 3346SOL    HW1 9857   3.883   1.349   0.263
 3346SOL    HW2 9858   3.991   1.401   0.374
 3347SOL     OW 9859   3.829   1.013   1.726
 3347SOL    HW1 9860   3.752   0.980   1.780
 3347SOL    HW2 9861   3.914   0.983   1.768
 3348SOL     OW 9862   4.396   0.203   1.489
 3348SOL    HW1 9863   4.486   0.187   1.449
 3348SOL    HW2 9864   4.404   0.208   1.588
 3349SOL     OW 9865   5.164   0.856   1.398
 3349SOL    HW1 9866   5.107   0.908   1.335
 3349SOL    HW2 9867   5.260   0.868   1.374
 3350SOL     OW 9868   3.796   0.166   0.318
 3350SOL    HW1 9869   3.779   0.249   0.264
 3350SOL    HW2 9870   3.886   0.129   0.296
 3351SOL     OW 9871   4.337   0.842   1.431
 3351SOL    HW1 9872   4.393   0.923   1.414
 3351SOL    HW2 9873   4.396   0.762   1.434
 3352SOL     OW 9874   4.440   0.565   1.708
 3352SOL    HW1 9875   4.459   0.630   1.782
 3352SOL    HW2 9876   4.500   0.485   1.717
 3353SOL     OW 9877   4.114   1.741   1.560
 3353SOL    HW1 9878   4.023   1.782   1.558
 3353SOL    HW2 9879   4.107   1.647   1.592
 3354SOL     OW 9880   4.949   0.325   0.449
 3354SOL    HW1 9881   5.014   0.251   0.438
 3354SOL    HW2 9882   4.969   0.375   0.533
 3355SOL     OW 9883   4.318   0.745   0.652
 3355SOL    HW1 9884   4.368   0.830   0.633
 3355SOL    HW2 9885   4.230   0.747   0.604
 3356SOL     OW 9886   4.583   1.374   0.016
 3356SOL    HW1 9887   4.537   1.389   0.104
 3356SOL    HW2 9888   4.627   1.459  -0.014
 3357SOL     OW 9889   4.385   1.790   0.953
 3357SOL    HW1 9890   4.339   1.878   0.940
 3357SOL    HW2 9891   4.484   1.802   0.946
 3358SOL     OW 9892   4.583   0.956   0.861
 3358SOL    HW1 9893   4.637   0.887   0.909
 3358SOL    HW2 9894   4.551   1.025   0.927
 3359SOL     OW 9895   4.807   0.984   0.087
 3359SOL    HW1 9896   4.784   1.037   0.005
 3359SOL    HW2 9897   4.888   0.928   0.068
 3360SOL     OW 9898   3.945   1.314   1.844
 3360SOL    HW1 9899   3.880   1.241   1.823
 3360SOL    HW2 9900   3.949   1.328   1.942
 3361SOL     OW 9901   3.803   1.240   0.653
 3361SOL    HW1 9902   3.802   1.193   0.741
 3361SOL    HW2 9903   3.885   1.212   0.602
 3362SOL     OW 9904   4.396   1.391   1.624
 3362SOL    HW1 9905   4.318   1.341   1.662
 3362SOL    HW2 9906   4.393   1.486   1.655
 3363SOL     OW 9907   4.152   0.424   0.520
 3363SOL    HW1 9908   4.182   0.352   0.458
 3363SOL    HW2 9909   4.113   0.384   0.603
 3364SOL     OW 9910   4.041   0.547   1.280
 3364SOL    HW1 9911   4.079   0.488   1.352
 3364SOL    HW2 9912   4.081   0.521   1.192
 3365SOL     OW 9913   4.536   1.586   0.687
 3365SOL    HW1 9914   4.568   1.596   0.593
 3365SOL    HW2 9915   4.457   1.524   0.689
 3366SOL     OW 9916   4.725   0.034   1.154
 3366SOL    HW1 9917   4.662  -0.038   1.123
 3366SOL    HW2 9918   4.818  -0.002   1.154
 3367SOL     OW 9919   4.494   1.330   0.301
 3367SOL    HW1 9920   4.448   1.243   0.318
 3367SOL    HW2 9921   4.585   1.327   0.342
 3368SOL     OW 9922   4.342   1.567   1.284
 3368SOL    HW1 9923   4.337   1.649   1.341
 3368SOL    HW2 9924   4.431   1.564   1.239
 3369SOL     OW 9925   3.763   1.077   0.300
 3369SOL    HW1 9926   3.862   1.066   0.291
 3369SOL    HW2 9927   3.723   0.991   0.332
 3370SOL     OW 9928   4.599   1.646   0.337
 3370SOL    HW1 9929   4.522   1.611   0.283
 3370SOL    HW2 9930   4.567   1.717   0.399
 3371SOL     OW 9931   3.954   0.628   1.975
 3371SOL    HW1 9932   3.861   0.626   2.012
 3371SOL    HW2 9933   3.955   0.589   1.883
 3372SOL     OW 9934   3.949   0.275   2.858
 3372SOL    HW1 9935   3.984   0.258   2.950
 3372SOL    HW2 9936   3.861   0.230   2.846
 3373SOL     OW 9937   3.743   0.368   2.509
 3373SOL    HW1 9938   3.661   0.411   2.548
 3373SOL    HW2 9939   3.715   0.295   2.446
 3374SOL     OW 9940   4.293   1.275   3.027
 3374SOL    HW1 9941   4.200   1.268   2.990
 3374SOL    HW2 9942   4.304   1.364   3.071
 3375SOL     OW 9943   4.859   0.703   2.579
 3375SOL    HW1 9944   4.916   0.781   2.554
 3375SOL    HW2 9945   4.799   0.729   2.655
 3376SOL     OW 9946   4.492   1.144   2.885
 3376SOL    HW1 9947   4.414   1.161   2.945
 3376SOL    HW2 9948   4.526   1.231   2.849
 3377SOL     OW 9949   4.574   0.798   3.685
 3377SOL    HW1 9950   4.570   0.874   3.750
 3377SOL    HW2 9951   4.596   0.834   3.594
 3378SOL     OW 9952   4.409   1.012   2.527
 3378SOL    HW1 9953   4.478   0.996   2.597
 3378SOL    HW2 9954   4.336   1.069   2.565
 3379SOL     OW 9955   4.410   1.161   3.665
 3379SOL    HW1 9956   4.470   1.240   3.679
 3379SOL    HW2 9957   4.324   1.192   3.624
 3380SOL     OW 9958   4.059   1.435   2.923
 3380SOL    HW1 9959   3.981   1.404   2.870
 3380SOL    HW2 9960   4.117   1.493   2.866
 3381SOL     OW 9961   4.162   0.392   3.361
 3381SOL    HW1 9962   4.244   0.336   3.370
 3381SOL    HW2 9963   4.081   0.334   3.365
 3382SOL     OW 9964   3.955   1.713   2.345
 3382SOL    HW1 9965   3.989   1.790   2.399
 3382SOL    HW2 9966   3.999   1.713   2.255
 3383SOL     OW 9967   4.851   1.341   3.552
 3383SOL    HW1 9968   4.898   1.341   3.640
 3383SOL    HW2 9969   4.803   1.254   3.541
 3384SOL     OW 9970   3.954   1.434   2.400
 3384SOL    HW1 9971   3.928   1.530   2.400
 3384SOL    HW2 9972   3.883   1.380   2.445
 3385SOL     OW 9973   3.964   1.091   2.748
 3385SOL    HW1 9974   3.978   1.007   2.800
 3385SOL    HW2 9975   3.909   1.155   2.803
 3386SOL     OW 9976   4.344   1.786   3.301
 3386SOL    HW1 9977   4.252   1.769   3.336
 3386SOL    HW2 9978   4.372   1.878   3.327
 3387SOL     OW 9979   4.330   0.964   1.985
 3387SOL    HW1 9980   4.337   1.048   1.931
 3387SOL    HW2 9981   4.376   0.977   2.073
 3388SOL     OW 9982   3.846   0.643   2.425
 3388SOL    HW1 9983   3.801   0.555   2.442
 3388SOL    HW2 9984   3.845   0.697   2.509
 3389SOL     OW 9985   3.751   1.596   1.979
 3389SOL    HW1 9986   3.732   1.500   2.000
 3389SOL    HW2 9987   3.718   1.654   2.054
 3390SOL     OW 9988   3.837   0.737   3.459
 3390SOL    HW1 9989   3.925   0.724   3.504
 3390SOL    HW2 9990   3.824   0.834   3.437
 3391SOL     OW 9991   4.337   1.365   2.588
 3391SOL    HW1 9992   4.288   1.278   2.597
 3391SOL    HW2 9993   4.314   1.408   2.501
 3392SOL     OW 9994   5.017   1.228   3.285
 3392SOL    HW1 9995   5.054   1.155   3.227
 3392SOL    HW2 9996   5.069   1.233   3.370
 3393SOL     OW 9997   4.533   0.004   2.364
 3393SOL    HW1 9998   4.573   0.095   2.355
 3393SOL    HW2 9999   4.433   0.012   2.370
 3394SOL     OW10000   3.921   0.976   3.126
 3394SOL    HW110001   4.010   0.931   3.112
 3394SOL    HW210002   3.848   0.911   3.107
 3395SOL     OW10003   4.911   1.792   3.478
 3395SOL    HW110004   4.935   1.852   3.402
 3395SOL    HW210005   4.918   1.697   3.448
 3396SOL     OW10006   4.041   0.251   3.663
 3396SOL    HW110007   4.112   0.322   3.669
 3396SOL    HW210008   3.953   0.290   3.691
 3397SOL     OW10009   4.322   0.729   2.132
 3397SOL    HW110010   4.346   0.798   2.064
 3397SOL    HW210011   4.244   0.762   2.186
 3398SOL     OW10012   5.005   0.345   2.806
 3398SOL    HW110013   4.919   0.295   2.793
 3398SOL    HW210014   5.067   0.291   2.862
 3399SOL     OW10015   4.531   0.605   3.327
 3399SOL    HW110016   4.484   0.602   3.416
 3399SOL    HW210017   4.480   0.550   3.261
 3400SOL     OW10018   4.697   0.890   3.434
 3400SOL    HW110019   4.743   0.806   3.405
 3400SOL    HW210020   4.641   0.924   3.359
 3401SOL     OW10021   4.715   0.410   3.104
 3401SOL    HW110022   4.638   0.444   3.158
 3401SOL    HW210023   4.681   0.359   3.025
 3402SOL     OW10024   4.765   0.701   2.291
 3402SOL    HW110025   4.791   0.697   2.387
 3402SOL    HW210026   4.680   0.650   2.277
 3403SOL     OW10027   3.800   0.811   2.651
 3403SOL    HW110028   3.899   0.799   2.660
 3403SOL    HW210029   3.776   0.906   2.672
 3404SOL     OW10030   3.854   1.821   3.433
 3404SOL    HW110031   3.844   1.806   3.532
 3404SOL    HW210032   3.768   1.857   3.397
 3405SOL     OW10033   4.589   0.348   2.057
 3405SOL    HW110034   4.648   0.411   2.008
 3405SOL    HW210035   4.608   0.254   2.028
 3406SOL     OW10036   4.274   0.196   2.747
 3406SOL    HW110037   4.269   0.191   2.847
 3406SOL    HW210038   4.276   0.292   2.718
 3407SOL     OW10039   4.732   1.456   2.339
 3407SOL    HW110040   4.686   1.528   2.287
 3407SOL    HW210041   4.728   1.476   2.437
 3408SOL     OW10042   4.075   1.801   2.715
 3408SOL    HW110043   4.125   1.715   2.721
 3408SOL    HW210044   4.140   1.878   2.712
 3409SOL     OW10045   4.951   1.550   3.368
 3409SOL    HW110046   4.957   1.473   3.432
 3409SOL    HW210047   4.899   1.524   3.288
 3410SOL     OW10048   4.045   0.943   2.104
 3410SOL    HW110049   4.127   0.982   2.062
 3410SOL    HW210050   4.018   0.861   2.055
 3411SOL     OW10051   4.185   1.266   3.589
 3411SOL    HW110052   4.135   1.267   3.503
 3411SOL    HW210053   4.122   1.248   3.665
 3412SOL     OW10054   4.835   1.776   2.099
 3412SOL    HW110055   4.775   1.714   2.149
 3412SOL    HW210056   4.866   1.732   2.014
 3413SOL     OW10057   3.926   0.285   3.360
 3413SOL    HW110058   3.846   0.345   3.347
 3413SOL    HW210059   3.916   0.236   3.446
 3414SOL     OW10060   4.188   1.743   2.185
 3414SOL    HW110061   4.221   1.782   2.271
 3414SOL    HW210062   4.264   1.736   2.120
 3415SOL     OW10063   3.973   1.785   3.103
 3415SOL    HW110064   4.030   1.720   3.153
 3415SOL    HW210065   3.957   1.752   3.010
 3416SOL     OW10066   4.664   1.698   2.766
 3416SOL    HW110067   4.744   1.641   2.787
 3416SOL    HW210068   4.615   1.658   2.689
 3417SOL     OW10069   4.106   0.700   2.342
 3417SOL    HW110070   4.151   0.610   2.339
 3417SOL    HW210071   4.012   0.689   2.375
 3418SOL     OW10072   4.338   0.122   1.979
 3418SOL    HW110073   4.436   0.100   1.986
 3418SOL    HW210074   4.307   0.105   1.886
 3419SOL     OW10075   4.505   0.264   3.611
 3419SOL    HW110076   4.572   0.203   3.654
 3419SOL    HW210077   4.432   0.283   3.676
 3420SOL     OW10078   4.612   1.514   3.057
 3420SOL    HW110079   4.589   1.489   2.963
 3420SOL    HW210080   4.673   1.445   3.096
 3421SOL     OW10081   4.527   1.402   2.786
 3421SOL    HW110082   4.617   1.416   2.744
 3421SOL    HW210083   4.456   1.404   2.715
 3422SOL     OW10084   4.646   0.503   2.761
 3422SOL    HW110085   4.621   0.494   2.665
 3422SOL    HW210086   4.694   0.421   2.792
 3423SOL     OW10087   4.263   0.064   2.374
 3423SOL    HW110088   4.182   0.065   2.432
 3423SOL    HW210089   4.266   0.147   2.319
 3424SOL     OW10090   4.021   0.035   2.033
 3424SOL    HW110091   4.070   0.119   2.012
 3424SOL    HW210092   4.083  -0.030   2.078
 3425SOL     OW10093   4.659   0.236   2.342
 3425SOL    HW110094   4.611   0.277   2.264
 3425SOL    HW210095   4.758   0.234   2.323
 3426SOL     OW10096   4.800   0.683   3.326
 3426SOL    HW110097   4.720   0.622   3.329
 3426SOL    HW210098   4.881   0.630   3.302
 3427SOL     OW10099   4.951   1.570   2.655
 3427SOL    HW110100   4.972   1.644   2.590
 3427SOL    HW210101   5.019   1.570   2.728
 3428SOL     OW10102   4.183   1.152   2.603
 3428SOL    HW110103   4.112   1.125   2.668
 3428SOL    HW210104   4.157   1.124   2.510
 3429SOL     OW10105   4.995   1.797   2.453
 3429SOL    HW110106   5.039   1.861   2.389
 3429SOL    HW210107   4.945   1.849   2.523
 3430SOL     OW10108   4.756   0.549   1.878
 3430SOL    HW110109   4.715   0.631   1.839
 3430SOL    HW210110   4.820   0.575   1.951
 3431SOL     OW10111   3.802   0.556   3.248
 3431SOL    HW110112   3.894   0.555   3.207
 3431SOL    HW210113   3.796   0.630   3.315
 3432SOL     OW10114   4.285   0.222   3.009
 3432SOL    HW110115   4.323   0.138   3.046
 3432SOL    HW210116   4.197   0.241   3.053
 3433SOL     OW10117   4.590   0.454   2.504
 3433SOL    HW110118   4.558   0.526   2.442
 3433SOL    HW210119   4.614   0.373   2.451
 3434SOL     OW10120   4.741   0.039   2.615
 3434SOL    HW110121   4.669   0.044   2.546
 3434SOL    HW210122   4.717  -0.030   2.684
 3435SOL     OW10123   4.212   1.385   2.036
 3435SOL    HW110124   4.125   1.370   2.083
 3435SOL    HW210125   4.195   1.411   1.941
 3436SOL     OW10126   5.388   1.280   2.519
 3436SOL    HW110127   5.487   1.288   2.533
 3436SOL    HW210128   5.343   1.364   2.550
 3437SOL     OW10129   4.251   0.256   2.190
 3437SOL    HW110130   4.278   0.197   2.115
 3437SOL    HW210131   4.251   0.351   2.159
 3438SOL     OW10132   4.788   1.347   3.202
 3438SOL    HW110133   4.708   1.324   3.257
 3438SOL    HW210134   4.871   1.321   3.251
 3439SOL     OW10135   4.835   1.195   2.962
 3439SOL    HW110136   4.795   1.239   3.043
 3439SOL    HW210137   4.794   1.232   2.879
 3440SOL     OW10138   4.639   0.089   3.264
 3440SOL    HW110139   4.664   0.069   3.169
 3440SOL    HW210140   4.711   0.145   3.306
 3441SOL     OW10141   4.704   1.116   3.581
 3441SOL    HW110142   4.605   1.122   3.591
 3441SOL    HW210143   4.727   1.036   3.525
 3442SOL     OW10144   4.429   1.050   2.230
 3442SOL    HW110145   4.415   1.057   2.329
 3442SOL    HW210146   4.513   0.999   2.212
 3443SOL     OW10147   4.134   0.813   3.113
 3443SOL    HW110148   4.220   0.825   3.163
 3443SOL    HW210149   4.092   0.726   3.140
 3444SOL     OW10150   4.998   0.386   3.124
 3444SOL    HW110151   5.019   0.460   3.188
 3444SOL    HW210152   4.909   0.403   3.081
 3445SOL     OW10153   3.788   1.564   3.193
 3445SOL    HW110154   3.742   1.646   3.159
 3445SOL    HW210155   3.886   1.583   3.202
 3446SOL     OW10156   4.091   1.100   2.363
 3446SOL    HW110157   4.084   1.183   2.307
 3446SOL    HW210158   4.095   1.020   2.303
 3447SOL     OW10159   4.290   0.537   2.727
 3447SOL    HW110160   4.302   0.603   2.653
 3447SOL    HW210161   4.336   0.571   2.810
 3448SOL     OW10162   4.976   1.348   2.250
 3448SOL    HW110163   5.026   1.425   2.290
 3448SOL    HW210164   4.881   1.350   2.282
 3449SOL     OW10165   4.078   1.510   3.191
 3449SOL    HW110166   4.057   1.466   3.104
 3449SOL    HW210167   4.175   1.536   3.194
 3450SOL     OW10168   4.126   0.751   3.460
 3450SOL    HW110169   4.194   0.806   3.413
 3450SOL    HW210170   4.166   0.663   3.487
 3451SOL     OW10171   4.737   0.105   3.632
 3451SOL    HW110172   4.743   0.190   3.580
 3451SOL    HW210173   4.769   0.029   3.575
 3452SOL     OW10174   4.228   0.050   3.602
 3452SOL    HW110175   4.186  -0.007   3.532
 3452SOL    HW210176   4.162   0.119   3.634
 3453SOL     OW10177   4.297   0.870   2.891
 3453SOL    HW110178   4.341   0.959   2.882
 3453SOL    HW210179   4.234   0.870   2.968
 3454SOL     OW10180   5.084   0.862   2.907
 3454SOL    HW110181   5.009   0.862   2.841
 3454SOL    HW210182   5.121   0.770   2.916
 3455SOL     OW10183   4.933   0.525   2.137
 3455SOL    HW110184   4.946   0.441   2.191
 3455SOL    HW210185   4.904   0.599   2.197
 3456SOL     OW10186   4.031   0.213   3.093
 3456SOL    HW110187   4.008   0.250   3.183
 3456SOL    HW210188   4.001   0.118   3.087
 3457SOL     OW10189   3.761   1.310   3.144
 3457SOL    HW110190   3.814   1.261   3.212
 3457SOL    HW210191   3.783   1.408   3.149
 3458SOL     OW10192   4.456   0.634   2.926
 3458SOL    HW110193   4.515   0.608   2.850
 3458SOL    HW210194   4.428   0.730   2.915
 3459SOL     OW10195   4.031   0.063   2.480
 3459SOL    HW110196   4.020   0.157   2.513
 3459SOL    HW210197   4.026   0.000   2.557
 3460SOL     OW10198   5.346   0.367   2.236
 3460SOL    HW110199   5.348   0.291   2.300
 3460SOL    HW210200   5.298   0.444   2.276
 3461SOL     OW10201   4.747   0.766   2.828
 3461SOL    HW110202   4.762   0.787   2.924
 3461SOL    HW210203   4.717   0.671   2.819
 3462SOL     OW10204   4.704   1.573   3.562
 3462SOL    HW110205   4.684   1.617   3.474
 3462SOL    HW210206   4.743   1.482   3.546
 3463SOL     OW10207   4.074   0.898   3.666
 3463SOL    HW110208   4.150   0.942   3.714
 3463SOL    HW210209   4.109   0.851   3.584
 3464SOL     OW10210   5.027   0.838   1.904
 3464SOL    HW110211   5.061   0.745   1.919
 3464SOL    HW210212   5.045   0.865   1.809
 3465SOL     OW10213   4.792   1.333   2.711
 3465SOL    HW110214   4.799   1.249   2.656
 3465SOL    HW210215   4.854   1.402   2.675
 3466SOL     OW10216   4.043   0.810   2.811
 3466SOL    HW110217   4.136   0.846   2.816
 3466SOL    HW210218   4.037   0.725   2.863
 3467SOL     OW10219   4.063   0.509   2.868
 3467SOL    HW110220   4.011   0.426   2.851
 3467SOL    HW210221   4.140   0.514   2.804
 3468SOL     OW10222   4.862   0.380   3.540
 3468SOL    HW110223   4.817   0.443   3.604
 3468SOL    HW210224   4.955   0.411   3.523
 3469SOL     OW10225   4.884   0.207   3.339
 3469SOL    HW110226   4.884   0.271   3.416
 3469SOL    HW210227   4.912   0.255   3.256
 3470SOL     OW10228   3.732   1.326   2.062
 3470SOL    HW110229   3.639   1.347   2.031
 3470SOL    HW210230   3.742   1.227   2.075
 3471SOL     OW10231   3.812   1.801   2.789
 3471SOL    HW110232   3.770   1.715   2.762
 3471SOL    HW210233   3.906   1.804   2.755
 3472SOL     OW10234   4.228   1.568   2.772
 3472SOL    HW110235   4.294   1.642   2.781
 3472SOL    HW210236   4.272   1.489   2.730
 3473SOL     OW10237   4.726   0.796   3.100
 3473SOL    HW110238   4.767   0.764   3.186
 3473SOL    HW210239   4.630   0.769   3.097
 3474SOL     OW10240   3.764   0.544   2.976
 3474SOL    HW110241   3.849   0.511   2.935
 3474SOL    HW210242   3.777   0.559   3.074
 3475SOL     OW10243   3.913   0.520   3.584
 3475SOL    HW110244   3.972   0.480   3.514
 3475SOL    HW210245   3.855   0.591   3.543
 3476SOL     OW10246   4.539   0.572   2.187
 3476SOL    HW110247   4.546   0.483   2.141
 3476SOL    HW210248   4.445   0.606   2.179
 3477SOL     OW10249   3.976   1.564   3.606
 3477SOL    HW110250   3.946   1.621   3.682
 3477SOL    HW210251   3.969   1.467   3.632
 3478SOL     OW10252   4.395   0.464   3.131
 3478SOL    HW110253   4.361   0.375   3.101
 3478SOL    HW210254   4.421   0.518   3.051
 3479SOL     OW10255   4.654   1.678   3.327
 3479SOL    HW110256   4.630   1.660   3.232
 3479SOL    HW210257   4.684   1.772   3.337
 3480SOL     OW10258   4.197   0.500   2.053
 3480SOL    HW110259   4.258   0.580   2.057
 3480SOL    HW210260   4.102   0.531   2.060
 3481SOL     OW10261   3.883   1.137   3.328
 3481SOL    HW110262   3.905   1.076   3.404
 3481SOL    HW210263   3.893   1.088   3.242
 3482SOL     OW10264   5.071   1.059   3.096
 3482SOL    HW110265   5.095   0.996   3.022
 3482SOL    HW210266   4.981   1.099   3.078
 3483SOL     OW10267   4.976   1.731   2.990
 3483SOL    HW110268   5.060   1.736   2.936
 3483SOL    HW210269   4.953   1.635   3.008
 3484SOL     OW10270   3.807   1.258   2.884
 3484SOL    HW110271   3.802   1.257   2.984
 3484SOL    HW210272   3.724   1.217   2.846
 3485SOL     OW10273   4.412   1.662   3.578
 3485SOL    HW110274   4.356   1.743   3.587
 3485SOL    HW210275   4.464   1.666   3.492
 3486SOL     OW10276   5.112   1.573   2.339
 3486SOL    HW110277   5.179   1.585   2.265
 3486SOL    HW210278   5.072   1.662   2.362
 3487SOL     OW10279   3.854   1.794   3.713
 3487SOL    HW110280   3.813   1.720   3.766
 3487SOL    HW210281   3.918   1.845   3.771
 3488SOL     OW10282   5.004   0.927   2.534
 3488SOL    HW110283   5.064   0.846   2.536
 3488SOL    HW210284   5.044   0.996   2.474
 3489SOL     OW10285   4.554   1.273   3.284
 3489SOL    HW110286   4.549   1.306   3.379
 3489SOL    HW210287   4.468   1.292   3.238
 3490SOL     OW10288   4.396   1.616   2.016
 3490SOL    HW110289   4.405   1.626   1.917
 3490SOL    HW210290   4.356   1.527   2.037
 3491SOL     OW10291   3.987   0.326   2.582
 3491SOL    HW110292   3.908   0.377   2.548
 3491SOL    HW210293   3.978   0.311   2.680
 3492SOL     OW10294   4.918   1.612   1.893
 3492SOL    HW110295   4.924   1.519   1.930
 3492SOL    HW210296   4.859   1.612   1.813
 3493SOL     OW10297   4.546   1.002   3.234
 3493SOL    HW110298   4.586   1.001   3.142
 3493SOL    HW210299   4.556   1.094   3.274
 3494SOL     OW10300   4.640   0.910   2.153
 3494SOL    HW110301   4.703   0.948   2.085
 3494SOL    HW210302   4.680   0.827   2.192
 3495SOL     OW10303   4.096   1.288   3.352
 3495SOL    HW110304   4.083   1.381   3.318
 3495SOL    HW210305   4.012   1.236   3.339
 3496SOL     OW10306   4.763   1.098   2.558
 3496SOL    HW110307   4.693   1.051   2.612
 3496SOL    HW210308   4.822   1.030   2.515
 3497SOL     OW10309   4.738   0.236   2.833
 3497SOL    HW110310   4.730   0.200   2.740
 3497SOL    HW210311   4.736   0.160   2.898
 3498SOL     OW10312   4.314   1.487   2.353
 3498SOL    HW110313   4.356   1.429   2.283
 3498SOL    HW210314   4.270   1.566   2.309
 3499SOL     OW10315   3.979   1.348   2.152
 3499SOL    HW110316   3.883   1.349   2.125
 3499SOL    HW210317   3.991   1.401   2.236
 3500SOL     OW10318   3.829   1.013   3.588
 3500SOL    HW110319   3.752   0.980   3.642
 3500SOL    HW210320   3.914   0.983   3.630
 3501SOL     OW10321   4.396   0.203   3.351
 3501SOL    HW110322   4.486   0.187   3.311
 3501SOL    HW210323   4.404   0.208   3.450
 3502SOL     OW10324   3.799   0.345   1.895
 3502SOL    HW110325   3.707   0.317   1.866
 3502SOL    HW210326   3.830   0.422   1.839
 3503SOL     OW10327   5.164   0.856   3.260
 3503SOL    HW110328   5.107   0.908   3.197
 3503SOL    HW210329   5.260   0.868   3.236
 3504SOL     OW10330   3.796   0.166   2.180
 3504SOL    HW110331   3.779   0.249   2.126
 3504SOL    HW210332   3.886   0.129   2.158
 3505SOL     OW10333   4.337   0.842   3.293
 3505SOL    HW110334   4.393   0.923   3.276
 3505SOL    HW210335   4.396   0.762   3.296
 3506SOL     OW10336   4.440   0.565   3.570
 3506SOL    HW110337   4.459   0.630   3.644
 3506SOL    HW210338   4.500   0.485   3.579
 3507SOL     OW10339   4.114   1.741   3.422
 3507SOL    HW110340   4.023   1.782   3.420
 3507SOL    HW210341   4.107   1.647   3.454
 3508SOL     OW10342   4.949   0.325   2.311
 3508SOL    HW110343   5.014   0.251   2.300
 3508SOL    HW210344   4.969   0.375   2.395
 3509SOL     OW10345   4.318   0.745   2.514
 3509SOL    HW110346   4.368   0.830   2.495
 3509SOL    HW210347   4.230   0.747   2.466
 3510SOL     OW10348   4.583   1.374   1.878
 3510SOL    HW110349   4.537   1.389   1.966
 3510SOL    HW210350   4.627   1.459   1.848
 3511SOL     OW10351   4.385   1.790   2.815
 3511SOL    HW110352   4.339   1.878   2.802
 3511SOL    HW210353   4.484   1.802   2.808
 3512SOL     OW10354   4.583   0.956   2.723
 3512SOL    HW110355   4.637   0.887   2.771
 3512SOL    HW210356   4.551   1.025   2.789
 3513SOL     OW10357   4.807   0.984   1.949
 3513SOL    HW110358   4.784   1.037   1.867
 3513SOL    HW210359   4.888   0.928   1.930
 3514SOL     OW10360   3.945   1.314   3.706
 3514SOL    HW110361   3.880   1.241   3.685
 3514SOL    HW210362   3.949   1.328   3.804
 3515SOL     OW10363   3.803   1.240   2.515
 3515SOL    HW110364   3.802   1.193   2.603
 3515SOL    HW210365   3.885   1.212   2.464
 3516SOL     OW10366   4.396   1.391   3.486
 3516SOL    HW110367   4.318   1.341   3.524
 3516SOL    HW210368   4.393   1.486   3.517
 3517SOL     OW10369   4.152   0.424   2.382
 3517SOL    HW110370   4.182   0.352   2.320
 3517SOL    HW210371   4.113   0.384   2.465
 3518SOL     OW10372   4.041   0.547   3.142
 3518SOL    HW110373   4.079   0.488   3.214
 3518SOL    HW210374   4.081   0.521   3.054
 3519SOL     OW10375   4.536   1.586   2.549
 3519SOL    HW110376   4.568   1.596   2.455
 3519SOL    HW210377   4.457   1.524   2.551
 3520SOL     OW10378   4.725   0.034   3.016
 3520SOL    HW110379   4.662  -0.038   2.985
 3520SOL    HW210380   4.818  -0.002   3.016
 3521SOL     OW10381   4.494   1.330   2.163
 3521SOL    HW110382   4.448   1.243   2.180
 3521SOL    HW210383   4.585   1.327   2.204
 3522SOL     OW10384   4.342   1.567   3.146
 3522SOL    HW110385   4.337   1.649   3.203
 3522SOL    HW210386   4.431   1.564   3.101
 3523SOL     OW10387   3.763   1.077   2.162
 3523SOL    HW110388   3.862   1.066   2.153
 3523SOL    HW210389   3.723   0.991   2.194
 3524SOL     OW10390   4.599   1.646   2.199
 3524SOL    HW110391   4.522   1.611   2.145
 3524SOL    HW210392   4.567   1.717   2.261
 3525SOL     OW10393   3.954   0.628   3.837
 3525SOL    HW110394   3.861   0.626   3.874
 3525SOL    HW210395   3.955   0.589   3.745
 3526SOL     OW10396   3.949   0.275   4.720
 3526SOL    HW110397   3.984   0.258   4.812
 3526SOL    HW210398   3.861   0.230   4.708
 3527SOL     OW10399   3.743   0.368   4.371
 3527SOL    HW110400   3.661   0.411   4.410
 3527SOL    HW210401   3.715   0.295   4.308
 3528SOL     OW10402   4.293   1.275   4.889
 3528SOL    HW110403   4.200   1.268   4.852
 3528SOL    HW210404   4.304   1.364   4.933
 3529SOL     OW10405   4.859   0.703   4.441
 3529SOL    HW110406   4.916   0.781   4.416
 3529SOL    HW210407   4.799   0.729   4.517
 3530SOL     OW10408   4.492   1.144   4.747
 3530SOL    HW110409   4.414   1.161   4.807
 3530SOL    HW210410   4.526   1.231   4.711
 3531SOL     OW10411   4.409   1.012   4.389
 3531SOL    HW110412   4.478   0.996   4.459
 3531SOL    HW210413   4.336   1.069   4.427
 3532SOL     OW10414   4.059   1.435   4.785
 3532SOL    HW110415   3.981   1.404   4.732
 3532SOL    HW210416   4.117   1.493   4.728
 3533SOL     OW10417   3.955   1.713   4.207
 3533SOL    HW110418   3.989   1.790   4.261
 3533SOL    HW210419   3.999   1.713   4.117
 3534SOL     OW10420   3.954   1.434   4.262
 3534SOL    HW110421   3.928   1.530   4.262
 3534SOL    HW210422   3.883   1.380   4.307
 3535SOL     OW10423   3.964   1.091   4.610
 3535SOL    HW110424   3.978   1.007   4.662
 3535SOL    HW210425   3.909   1.155   4.665
 3536SOL     OW10426   4.344   1.786   5.163
 3536SOL    HW110427   4.252   1.769   5.198
 3536SOL    HW210428   4.372   1.878   5.189
 3537SOL     OW10429   4.330   0.964   3.847
 3537SOL    HW110430   4.337   1.048   3.793
 3537SOL    HW210431   4.376   0.977   3.935
 3538SOL     OW10432   3.846   0.643   4.287
 3538SOL    HW110433   3.801   0.555   4.304
 3538SOL    HW210434   3.845   0.697   4.371
 3539SOL     OW10435   3.751   1.596   3.841
 3539SOL    HW110436   3.732   1.500   3.862
 3539SOL    HW210437   3.718   1.654   3.916
 3540SOL     OW10438   4.337   1.365   4.450
 3540SOL    HW110439   4.288   1.278   4.459
 3540SOL    HW210440   4.314   1.408   4.363
 3541SOL     OW10441   4.533   0.004   4.226
 3541SOL    HW110442   4.573   0.095   4.217
 3541SOL    HW210443   4.433   0.012   4.232
 3542SOL     OW10444   3.921   0.976   4.988
 3542SOL    HW110445   4.010   0.931   4.974
 3542SOL    HW210446   3.848   0.911   4.969
 3543SOL     OW10447   4.322   0.729   3.994
 3543SOL    HW110448   4.346   0.798   3.926
 3543SOL    HW210449   4.244   0.762   4.048
 3544SOL     OW10450   5.005   0.345   4.668
 3544SOL    HW110451   4.919   0.295   4.655
 3544SOL    HW210452   5.067   0.291   4.724
 3545SOL     OW10453   4.715   0.410   4.966
 3545SOL    HW110454   4.638   0.444   5.020
 3545SOL    HW210455   4.681   0.359   4.887
 3546SOL     OW10456   4.765   0.701   4.153
 3546SOL    HW110457   4.791   0.697   4.249
 3546SOL    HW210458   4.680   0.650   4.139
 3547SOL     OW10459   3.800   0.811   4.513
 3547SOL    HW110460   3.899   0.799   4.522
 3547SOL    HW210461   3.776   0.906   4.534
 3548SOL     OW10462   4.589   0.348   3.919
 3548SOL    HW110463   4.648   0.411   3.870
 3548SOL    HW210464   4.608   0.254   3.890
 3549SOL     OW10465   4.274   0.196   4.609
 3549SOL    HW110466   4.269   0.191   4.709
 3549SOL    HW210467   4.276   0.292   4.580
 3550SOL     OW10468   4.732   1.456   4.201
 3550SOL    HW110469   4.686   1.528   4.149
 3550SOL    HW210470   4.728   1.476   4.299
 3551SOL     OW10471   4.075   1.801   4.577
 3551SOL    HW110472   4.125   1.715   4.583
 3551SOL    HW210473   4.140   1.878   4.574
 3552SOL     OW10474   4.045   0.943   3.966
 3552SOL    HW110475   4.127   0.982   3.924
 3552SOL    HW210476   4.018   0.861   3.917
 3553SOL     OW10477   4.835   1.776   3.961
 3553SOL    HW110478   4.775   1.714   4.011
 3553SOL    HW210479   4.866   1.732   3.876
 3554SOL     OW10480   4.188   1.743   4.047
 3554SOL    HW110481   4.221   1.782   4.133
 3554SOL    HW210482   4.264   1.736   3.982
 3555SOL     OW10483   3.973   1.785   4.965
 3555SOL    HW110484   4.030   1.720   5.015
 3555SOL    HW210485   3.957   1.752   4.872
 3556SOL     OW10486   4.664   1.698   4.628
 3556SOL    HW110487   4.744   1.641   4.649
 3556SOL    HW210488   4.615   1.658   4.551
 3557SOL     OW10489   4.106   0.700   4.204
 3557SOL    HW110490   4.151   0.610   4.201
 3557SOL    HW210491   4.012   0.689   4.237
 3558SOL     OW10492   4.338   0.122   3.841
 3558SOL    HW110493   4.436   0.100   3.848
 3558SOL    HW210494   4.307   0.105   3.748
 3559SOL     OW10495   4.527   1.402   4.648
 3559SOL    HW110496   4.617   1.416   4.606
 3559SOL    HW210497   4.456   1.404   4.577
 3560SOL     OW10498   4.646   0.503   4.623
 3560SOL    HW110499   4.621   0.494   4.527
 3560SOL    HW210500   4.694   0.421   4.654
 3561SOL     OW10501   4.263   0.064   4.236
 3561SOL    HW110502   4.182   0.065   4.294
 3561SOL    HW210503   4.266   0.147   4.181
 3562SOL     OW10504   4.021   0.035   3.895
 3562SOL    HW110505   4.070   0.119   3.874
 3562SOL    HW210506   4.083  -0.030   3.940
 3563SOL     OW10507   4.659   0.236   4.204
 3563SOL    HW110508   4.611   0.277   4.126
 3563SOL    HW210509   4.758   0.234   4.185
 3564SOL     OW10510   4.951   1.570   4.517
 3564SOL    HW110511   4.972   1.644   4.452
 3564SOL    HW210512   5.019   1.570   4.590
 3565SOL     OW10513   4.183   1.152   4.465
 3565SOL    HW110514   4.112   1.125   4.530
 3565SOL    HW210515   4.157   1.124   4.372
 3566SOL     OW10516   4.995   1.797   4.315
 3566SOL    HW110517   5.039   1.861   4.251
 3566SOL    HW210518   4.945   1.849   4.385
 3567SOL     OW10519   4.756   0.549   3.740
 3567SOL    HW110520   4.715   0.631   3.701
 3567SOL    HW210521   4.820   0.575   3.813
 3568SOL     OW10522   4.285   0.222   4.871
 3568SOL    HW110523   4.323   0.138   4.908
 3568SOL    HW210524   4.197   0.241   4.915
 3569SOL     OW10525   4.590   0.454   4.366
 3569SOL    HW110526   4.558   0.526   4.304
 3569SOL    HW210527   4.614   0.373   4.313
 3570SOL     OW10528   4.741   0.039   4.477
 3570SOL    HW110529   4.669   0.044   4.408
 3570SOL    HW210530   4.717  -0.030   4.546
 3571SOL     OW10531   4.212   1.385   3.898
 3571SOL    HW110532   4.125   1.370   3.945
 3571SOL    HW210533   4.195   1.411   3.803
 3572SOL     OW10534   5.388   1.280   4.381
 3572SOL    HW110535   5.487   1.288   4.395
 3572SOL    HW210536   5.343   1.364   4.412
 3573SOL     OW10537   4.251   0.256   4.052
 3573SOL    HW110538   4.278   0.197   3.977
 3573SOL    HW210539   4.251   0.351   4.021
 3574SOL     OW10540   5.316   1.629   5.349
 3574SOL    HW110541   5.343   1.663   5.259
 3574SOL    HW210542   5.395   1.591   5.395
 3575SOL     OW10543   4.835   1.195   4.824
 3575SOL    HW110544   4.795   1.239   4.905
 3575SOL    HW210545   4.794   1.232   4.741
 3576SOL     OW10546   4.429   1.050   4.092
 3576SOL    HW110547   4.415   1.057   4.191
 3576SOL    HW210548   4.513   0.999   4.074
 3577SOL     OW10549   4.134   0.813   4.975
 3577SOL    HW110550   4.220   0.825   5.025
 3577SOL    HW210551   4.092   0.726   5.002
 3578SOL     OW10552   4.091   1.100   4.225
 3578SOL    HW110553   4.084   1.183   4.169
 3578SOL    HW210554   4.095   1.020   4.165
 3579SOL     OW10555   4.290   0.537   4.589
 3579SOL    HW110556   4.302   0.603   4.515
 3579SOL    HW210557   4.336   0.571   4.672
 3580SOL     OW10558   4.976   1.348   4.112
 3580SOL    HW110559   5.026   1.425   4.152
 3580SOL    HW210560   4.881   1.350   4.144
 3581SOL     OW10561   4.078   1.510   5.053
 3581SOL    HW110562   4.057   1.466   4.966
 3581SOL    HW210563   4.175   1.536   5.056
 3582SOL     OW10564   4.297   0.870   4.753
 3582SOL    HW110565   4.341   0.959   4.744
 3582SOL    HW210566   4.234   0.870   4.830
 3583SOL     OW10567   5.084   0.862   4.769
 3583SOL    HW110568   5.009   0.862   4.703
 3583SOL    HW210569   5.121   0.770   4.778
 3584SOL     OW10570   4.933   0.525   3.999
 3584SOL    HW110571   4.946   0.441   4.053
 3584SOL    HW210572   4.904   0.599   4.059
 3585SOL     OW10573   4.031   0.213   4.955
 3585SOL    HW110574   4.008   0.250   5.045
 3585SOL    HW210575   4.001   0.118   4.949
 3586SOL     OW10576   3.761   1.310   5.006
 3586SOL    HW110577   3.814   1.261   5.074
 3586SOL    HW210578   3.783   1.408   5.011
 3587SOL     OW10579   4.456   0.634   4.788
 3587SOL    HW110580   4.515   0.608   4.712
 3587SOL    HW210581   4.428   0.730   4.777
 3588SOL     OW10582   4.031   0.063   4.342
 3588SOL    HW110583   4.020   0.157   4.375
 3588SOL    HW210584   4.026   0.000   4.419
 3589SOL     OW10585   5.346   0.367   4.098
 3589SOL    HW110586   5.348   0.291   4.162
 3589SOL    HW210587   5.298   0.444   4.138
 3590SOL     OW10588   4.747   0.766   4.690
 3590SOL    HW110589   4.762   0.787   4.786
 3590SOL    HW210590   4.717   0.671   4.681
 3591SOL     OW10591   5.027   0.838   3.766
 3591SOL    HW110592   5.061   0.745   3.781
 3591SOL    HW210593   5.045   0.865   3.671
 3592SOL     OW10594   4.792   1.333   4.573
 3592SOL    HW110595   4.799   1.249   4.518
 3592SOL    HW210596   4.854   1.402   4.537
 3593SOL     OW10597   4.043   0.810   4.673
 3593SOL    HW110598   4.136   0.846   4.678
 3593SOL    HW210599   4.037   0.725   4.725
 3594SOL     OW10600   4.063   0.509   4.730
 3594SOL    HW110601   4.011   0.426   4.713
 3594SOL    HW210602   4.140   0.514   4.666
 3595SOL     OW10603   4.884   0.207   5.201
 3595SOL    HW110604   4.884   0.271   5.278
 3595SOL    HW210605   4.912   0.255   5.118
 3596SOL     OW10606   3.732   1.326   3.924
 3596SOL    HW110607   3.639   1.347   3.893
 3596SOL    HW210608   3.742   1.227   3.937
 3597SOL     OW10609   3.812   1.801   4.651
 3597SOL    HW110610   3.770   1.715   4.624
 3597SOL    HW210611   3.906   1.804   4.617
 3598SOL     OW10612   4.228   1.568   4.634
 3598SOL    HW110613   4.294   1.642   4.643
 3598SOL    HW210614   4.272   1.489   4.592
 3599SOL     OW10615   4.726   0.796   4.962
 3599SOL    HW110616   4.767   0.764   5.048
 3599SOL    HW210617   4.630   0.769   4.959
 3600SOL     OW10618   3.764   0.544   4.838
 3600SOL    HW110619   3.849   0.511   4.797
 3600SOL    HW210620   3.777   0.559   4.936
 3601SOL     OW10621   4.539   0.572   4.049
 3601SOL    HW110622   4.546   0.483   4.003
 3601SOL    HW210623   4.445   0.606   4.041
 3602SOL     OW10624   4.395   0.464   4.993
 3602SOL    HW110625   4.361   0.375   4.963
 3602SOL    HW210626   4.421   0.518   4.913
 3603SOL     OW10627   4.654   1.678   5.189
 3603SOL    HW110628   4.630   1.660   5.094
 3603SOL    HW210629   4.684   1.772   5.199
 3604SOL     OW10630   4.197   0.500   3.915
 3604SOL    HW110631   4.258   0.580   3.919
 3604SOL    HW210632   4.102   0.531   3.922
 3605SOL     OW10633   5.071   1.059   4.958
 3605SOL    HW110634   5.095   0.996   4.884
 3605SOL    HW210635   4.981   1.099   4.940
 3606SOL     OW10636   4.976   1.731   4.852
 3606SOL    HW110637   5.060   1.736   4.798
 3606SOL    HW210638   4.953   1.635   4.870
 3607SOL     OW10639   3.807   1.258   4.746
 3607SOL    HW110640   3.802   1.257   4.846
 3607SOL    HW210641   3.724   1.217   4.708
 3608SOL     OW10642   5.112   1.573   4.201
 3608SOL    HW110643   5.179   1.585   4.127
 3608SOL    HW210644   5.072   1.662   4.224
 3609SOL     OW10645   5.004   0.927   4.396
 3609SOL    HW110646   5.064   0.846   4.398
 3609SOL    HW210647   5.044   0.996   4.336
 3610SOL     OW10648   4.396   1.616   3.878
 3610SOL    HW110649   4.405   1.626   3.779
 3610SOL    HW210650   4.356   1.527   3.899
 3611SOL     OW10651   3.987   0.326   4.444
 3611SOL    HW110652   3.908   0.377   4.410
 3611SOL    HW210653   3.978   0.311   4.542
 3612SOL     OW10654   4.918   1.612   3.755
 3612SOL    HW110655   4.924   1.519   3.792
 3612SOL    HW210656   4.859   1.612   3.675
 3613SOL     OW10657   4.546   1.002   5.096
 3613SOL    HW110658   4.586   1.001   5.004
 3613SOL    HW210659   4.556   1.094   5.136
 3614SOL     OW10660   4.640   0.910   4.015
 3614SOL    HW110661   4.703   0.948   3.947
 3614SOL    HW210662   4.680   0.827   4.054
 3615SOL     OW10663   4.763   1.098   4.420
 3615SOL    HW110664   4.693   1.051   4.474
 3615SOL    HW210665   4.822   1.030   4.377
 3616SOL     OW10666   4.738   0.236   4.695
 3616SOL    HW110667   4.730   0.200   4.602
 3616SOL    HW210668   4.736   0.160   4.760
 3617SOL     OW10669   4.314   1.487   4.215
 3617SOL    HW110670   4.356   1.429   4.145
 3617SOL    HW210671   4.270   1.566   4.171
 3618SOL     OW10672   3.979   1.348   4.014
 3618SOL    HW110673   3.883   1.349   3.987
 3618SOL    HW210674   3.991   1.401   4.098
 3619SOL     OW10675   3.799   0.345   3.757
 3619SOL    HW110676   3.707   0.317   3.728
 3619SOL    HW210677   3.830   0.422   3.701
 3620SOL     OW10678   3.796   0.166   4.042
 3620SOL    HW110679   3.779   0.249   3.988
 3620SOL    HW210680   3.886   0.129   4.020
 3621SOL     OW10681   4.949   0.325   4.173
 3621SOL    HW110682   5.014   0.251   4.162
 3621SOL    HW210683   4.969   0.375   4.257
 3622SOL     OW10684   4.318   0.745   4.376
 3622SOL    HW110685   4.368   0.830   4.357
 3622SOL    HW210686   4.230   0.747   4.328
 3623SOL     OW10687   4.583   1.374   3.740
 3623SOL    HW110688   4.537   1.389   3.828
 3623SOL    HW210689   4.627   1.459   3.710
 3624SOL     OW10690   4.385   1.790   4.677
 3624SOL    HW110691   4.339   1.878   4.664
 3624SOL    HW210692   4.484   1.802   4.670
 3625SOL     OW10693   4.583   0.956   4.585
 3625SOL    HW110694   4.637   0.887   4.633
 3625SOL    HW210695   4.551   1.025   4.651
 3626SOL     OW10696   4.807   0.984   3.811
 3626SOL    HW110697   4.784   1.037   3.729
 3626SOL    HW210698   4.888   0.928   3.792
 3627SOL     OW10699   3.803   1.240   4.377
 3627SOL    HW110700   3.802   1.193   4.465
 3627SOL    HW210701   3.885   1.212   4.326
 3628SOL     OW10702   4.152   0.424   4.244
 3628SOL    HW110703   4.182   0.352   4.182
 3628SOL    HW210704   4.113   0.384   4.327
 3629SOL     OW10705   4.536   1.586   4.411
 3629SOL    HW110706   4.568   1.596   4.317
 3629SOL    HW210707   4.457   1.524   4.413
 3630SOL     OW10708   4.725   0.034   4.878
 3630SOL    HW110709   4.662  -0.038   4.847
 3630SOL    HW210710   4.818  -0.002   4.878
 3631SOL     OW10711   4.494   1.330   4.025
 3631SOL    HW110712   4.448   1.243   4.042
 3631SOL    HW210713   4.585   1.327   4.066
 3632SOL     OW10714   3.763   1.077   4.024
 3632SOL    HW110715   3.862   1.066   4.015
 3632SOL    HW210716   3.723   0.991   4.056
 3633SOL     OW10717   4.599   1.646   4.061
 3633SOL    HW110718   4.522   1.611   4.007
 3633SOL    HW210719   4.567   1.717   4.123
 3634SOL     OW10720   3.954   2.490   0.113
 3634SOL    HW110721   3.861   2.488   0.150
 3634SOL    HW210722   3.955   2.451   0.021
 3635SOL     OW10723   3.949   2.137   0.996
 3635SOL    HW110724   3.984   2.120   1.088
 3635SOL    HW210725   3.861   2.092   0.984
 3636SOL     OW10726   3.743   2.230   0.647
 3636SOL    HW110727   3.661   2.273   0.686
 3636SOL    HW210728   3.715   2.157   0.584
 3637SOL     OW10729   4.293   3.137   1.165
 3637SOL    HW110730   4.200   3.130   1.128
 3637SOL    HW210731   4.304   3.226   1.209
 3638SOL     OW10732   4.859   2.565   0.717
 3638SOL    HW110733   4.916   2.643   0.692
 3638SOL    HW210734   4.799   2.591   0.793
 3639SOL     OW10735   4.492   3.006   1.023
 3639SOL    HW110736   4.414   3.023   1.083
 3639SOL    HW210737   4.526   3.093   0.987
 3640SOL     OW10738   4.574   2.660   1.823
 3640SOL    HW110739   4.570   2.736   1.888
 3640SOL    HW210740   4.596   2.696   1.732
 3641SOL     OW10741   4.409   2.874   0.665
 3641SOL    HW110742   4.478   2.858   0.735
 3641SOL    HW210743   4.336   2.931   0.703
 3642SOL     OW10744   4.410   3.023   1.803
 3642SOL    HW110745   4.470   3.102   1.817
 3642SOL    HW210746   4.324   3.054   1.762
 3643SOL     OW10747   4.059   3.297   1.061
 3643SOL    HW110748   3.981   3.266   1.008
 3643SOL    HW210749   4.117   3.355   1.004
 3644SOL     OW10750   4.162   2.254   1.499
 3644SOL    HW110751   4.244   2.198   1.508
 3644SOL    HW210752   4.081   2.196   1.503
 3645SOL     OW10753   3.955   3.575   0.483
 3645SOL    HW110754   3.989   3.652   0.537
 3645SOL    HW210755   3.999   3.575   0.393
 3646SOL     OW10756   4.851   3.203   1.690
 3646SOL    HW110757   4.898   3.203   1.778
 3646SOL    HW210758   4.803   3.116   1.679
 3647SOL     OW10759   3.954   3.296   0.538
 3647SOL    HW110760   3.928   3.392   0.538
 3647SOL    HW210761   3.883   3.242   0.583
 3648SOL     OW10762   3.964   2.953   0.886
 3648SOL    HW110763   3.978   2.869   0.938
 3648SOL    HW210764   3.909   3.017   0.941
 3649SOL     OW10765   4.344   3.648   1.439
 3649SOL    HW110766   4.252   3.631   1.474
 3649SOL    HW210767   4.372   3.740   1.465
 3650SOL     OW10768   4.330   2.826   0.123
 3650SOL    HW110769   4.337   2.910   0.069
 3650SOL    HW210770   4.376   2.839   0.211
 3651SOL     OW10771   3.846   2.505   0.563
 3651SOL    HW110772   3.801   2.417   0.580
 3651SOL    HW210773   3.845   2.559   0.647
 3652SOL     OW10774   3.751   3.458   0.117
 3652SOL    HW110775   3.732   3.362   0.138
 3652SOL    HW210776   3.718   3.516   0.192
 3653SOL     OW10777   3.837   2.599   1.597
 3653SOL    HW110778   3.925   2.586   1.642
 3653SOL    HW210779   3.824   2.696   1.575
 3654SOL     OW10780   4.337   3.227   0.726
 3654SOL    HW110781   4.288   3.140   0.735
 3654SOL    HW210782   4.314   3.270   0.639
 3655SOL     OW10783   5.017   3.090   1.423
 3655SOL    HW110784   5.054   3.017   1.365
 3655SOL    HW210785   5.069   3.095   1.508
 3656SOL     OW10786   4.533   1.866   0.502
 3656SOL    HW110787   4.573   1.957   0.493
 3656SOL    HW210788   4.433   1.874   0.508
 3657SOL     OW10789   3.921   2.838   1.264
 3657SOL    HW110790   4.010   2.793   1.250
 3657SOL    HW210791   3.848   2.773   1.245
 3658SOL     OW10792   4.911   3.654   1.616
 3658SOL    HW110793   4.935   3.714   1.540
 3658SOL    HW210794   4.918   3.559   1.586
 3659SOL     OW10795   4.041   2.113   1.801
 3659SOL    HW110796   4.112   2.184   1.807
 3659SOL    HW210797   3.953   2.152   1.829
 3660SOL     OW10798   4.322   2.591   0.270
 3660SOL    HW110799   4.346   2.660   0.202
 3660SOL    HW210800   4.244   2.624   0.324
 3661SOL     OW10801   5.005   2.207   0.944
 3661SOL    HW110802   4.919   2.157   0.931
 3661SOL    HW210803   5.067   2.153   1.000
 3662SOL     OW10804   4.531   2.467   1.465
 3662SOL    HW110805   4.484   2.464   1.554
 3662SOL    HW210806   4.480   2.412   1.399
 3663SOL     OW10807   4.697   2.752   1.572
 3663SOL    HW110808   4.743   2.668   1.543
 3663SOL    HW210809   4.641   2.786   1.497
 3664SOL     OW10810   4.715   2.272   1.242
 3664SOL    HW110811   4.638   2.306   1.296
 3664SOL    HW210812   4.681   2.221   1.163
 3665SOL     OW10813   4.765   2.563   0.429
 3665SOL    HW110814   4.791   2.559   0.525
 3665SOL    HW210815   4.680   2.512   0.415
 3666SOL     OW10816   3.800   2.673   0.789
 3666SOL    HW110817   3.899   2.661   0.798
 3666SOL    HW210818   3.776   2.768   0.810
 3667SOL     OW10819   3.854   3.683   1.571
 3667SOL    HW110820   3.844   3.668   1.670
 3667SOL    HW210821   3.768   3.719   1.535
 3668SOL     OW10822   4.589   2.210   0.195
 3668SOL    HW110823   4.648   2.273   0.146
 3668SOL    HW210824   4.608   2.116   0.166
 3669SOL     OW10825   4.274   2.058   0.885
 3669SOL    HW110826   4.269   2.053   0.985
 3669SOL    HW210827   4.276   2.154   0.856
 3670SOL     OW10828   4.732   3.318   0.477
 3670SOL    HW110829   4.686   3.390   0.425
 3670SOL    HW210830   4.728   3.338   0.575
 3671SOL     OW10831   4.075   3.663   0.853
 3671SOL    HW110832   4.125   3.577   0.859
 3671SOL    HW210833   4.140   3.740   0.850
 3672SOL     OW10834   4.951   3.412   1.506
 3672SOL    HW110835   4.957   3.335   1.570
 3672SOL    HW210836   4.899   3.386   1.426
 3673SOL     OW10837   4.045   2.805   0.242
 3673SOL    HW110838   4.127   2.844   0.200
 3673SOL    HW210839   4.018   2.723   0.193
 3674SOL     OW10840   4.185   3.128   1.727
 3674SOL    HW110841   4.135   3.129   1.641
 3674SOL    HW210842   4.122   3.110   1.803
 3675SOL     OW10843   4.835   3.638   0.237
 3675SOL    HW110844   4.775   3.576   0.287
 3675SOL    HW210845   4.866   3.594   0.152
 3676SOL     OW10846   3.926   2.147   1.498
 3676SOL    HW110847   3.846   2.207   1.485
 3676SOL    HW210848   3.916   2.098   1.584
 3677SOL     OW10849   5.356   3.239   0.081
 3677SOL    HW110850   5.324   3.333   0.071
 3677SOL    HW210851   5.280   3.176   0.069
 3678SOL     OW10852   4.188   3.605   0.323
 3678SOL    HW110853   4.221   3.644   0.409
 3678SOL    HW210854   4.264   3.598   0.258
 3679SOL     OW10855   3.973   3.647   1.241
 3679SOL    HW110856   4.030   3.582   1.291
 3679SOL    HW210857   3.957   3.614   1.148
 3680SOL     OW10858   4.664   3.560   0.904
 3680SOL    HW110859   4.744   3.503   0.925
 3680SOL    HW210860   4.615   3.520   0.827
 3681SOL     OW10861   4.106   2.562   0.480
 3681SOL    HW110862   4.151   2.472   0.477
 3681SOL    HW210863   4.012   2.551   0.513
 3682SOL     OW10864   4.505   2.126   1.749
 3682SOL    HW110865   4.572   2.065   1.792
 3682SOL    HW210866   4.432   2.145   1.814
 3683SOL     OW10867   4.612   3.376   1.195
 3683SOL    HW110868   4.589   3.351   1.101
 3683SOL    HW210869   4.673   3.307   1.234
 3684SOL     OW10870   4.527   3.264   0.924
 3684SOL    HW110871   4.617   3.278   0.882
 3684SOL    HW210872   4.456   3.266   0.853
 3685SOL     OW10873   4.646   2.365   0.899
 3685SOL    HW110874   4.621   2.356   0.803
 3685SOL    HW210875   4.694   2.283   0.930
 3686SOL     OW10876   4.263   1.926   0.512
 3686SOL    HW110877   4.182   1.927   0.570
 3686SOL    HW210878   4.266   2.009   0.457
 3687SOL     OW10879   4.021   1.897   0.171
 3687SOL    HW110880   4.070   1.981   0.150
 3687SOL    HW210881   4.083   1.832   0.216
 3688SOL     OW10882   4.659   2.098   0.480
 3688SOL    HW110883   4.611   2.139   0.402
 3688SOL    HW210884   4.758   2.096   0.461
 3689SOL     OW10885   4.800   2.545   1.464
 3689SOL    HW110886   4.720   2.484   1.467
 3689SOL    HW210887   4.881   2.492   1.440
 3690SOL     OW10888   4.951   3.432   0.793
 3690SOL    HW110889   4.972   3.506   0.728
 3690SOL    HW210890   5.019   3.432   0.866
 3691SOL     OW10891   4.183   3.014   0.741
 3691SOL    HW110892   4.112   2.987   0.806
 3691SOL    HW210893   4.157   2.986   0.648
 3692SOL     OW10894   4.995   3.659   0.591
 3692SOL    HW110895   5.039   3.723   0.527
 3692SOL    HW210896   4.945   3.711   0.661
 3693SOL     OW10897   4.756   2.411   0.016
 3693SOL    HW110898   4.715   2.493  -0.023
 3693SOL    HW210899   4.820   2.437   0.089
 3694SOL     OW10900   3.802   2.418   1.386
 3694SOL    HW110901   3.894   2.417   1.345
 3694SOL    HW210902   3.796   2.492   1.453
 3695SOL     OW10903   4.285   2.084   1.147
 3695SOL    HW110904   4.323   2.000   1.184
 3695SOL    HW210905   4.197   2.103   1.191
 3696SOL     OW10906   4.590   2.316   0.642
 3696SOL    HW110907   4.558   2.388   0.580
 3696SOL    HW210908   4.614   2.235   0.589
 3697SOL     OW10909   4.741   1.901   0.753
 3697SOL    HW110910   4.669   1.906   0.684
 3697SOL    HW210911   4.717   1.832   0.822
 3698SOL     OW10912   4.212   3.247   0.174
 3698SOL    HW110913   4.125   3.232   0.221
 3698SOL    HW210914   4.195   3.273   0.079
 3699SOL     OW10915   5.388   3.142   0.657
 3699SOL    HW110916   5.487   3.150   0.671
 3699SOL    HW210917   5.343   3.226   0.688
 3700SOL     OW10918   4.251   2.118   0.328
 3700SOL    HW110919   4.278   2.059   0.253
 3700SOL    HW210920   4.251   2.213   0.297
 3701SOL     OW10921   4.788   3.209   1.340
 3701SOL    HW110922   4.708   3.186   1.395
 3701SOL    HW210923   4.871   3.183   1.389
 3702SOL     OW10924   4.835   3.057   1.100
 3702SOL    HW110925   4.795   3.101   1.181
 3702SOL    HW210926   4.794   3.094   1.017
 3703SOL     OW10927   4.639   1.951   1.402
 3703SOL    HW110928   4.664   1.931   1.307
 3703SOL    HW210929   4.711   2.007   1.444
 3704SOL     OW10930   4.704   2.978   1.719
 3704SOL    HW110931   4.605   2.984   1.729
 3704SOL    HW210932   4.727   2.898   1.663
 3705SOL     OW10933   4.429   2.912   0.368
 3705SOL    HW110934   4.415   2.919   0.467
 3705SOL    HW210935   4.513   2.861   0.350
 3706SOL     OW10936   4.134   2.675   1.251
 3706SOL    HW110937   4.220   2.687   1.301
 3706SOL    HW210938   4.092   2.588   1.278
 3707SOL     OW10939   4.998   2.248   1.262
 3707SOL    HW110940   5.019   2.322   1.326
 3707SOL    HW210941   4.909   2.265   1.219
 3708SOL     OW10942   3.788   3.426   1.331
 3708SOL    HW110943   3.742   3.508   1.297
 3708SOL    HW210944   3.886   3.445   1.340
 3709SOL     OW10945   4.091   2.962   0.501
 3709SOL    HW110946   4.084   3.045   0.445
 3709SOL    HW210947   4.095   2.882   0.441
 3710SOL     OW10948   4.290   2.399   0.865
 3710SOL    HW110949   4.302   2.465   0.791
 3710SOL    HW210950   4.336   2.433   0.948
 3711SOL     OW10951   4.976   3.210   0.388
 3711SOL    HW110952   5.026   3.287   0.428
 3711SOL    HW210953   4.881   3.212   0.420
 3712SOL     OW10954   4.078   3.372   1.329
 3712SOL    HW110955   4.057   3.328   1.242
 3712SOL    HW210956   4.175   3.398   1.332
 3713SOL     OW10957   4.126   2.613   1.598
 3713SOL    HW110958   4.194   2.668   1.551
 3713SOL    HW210959   4.166   2.525   1.625
 3714SOL     OW10960   4.737   1.967   1.770
 3714SOL    HW110961   4.743   2.052   1.718
 3714SOL    HW210962   4.769   1.891   1.713
 3715SOL     OW10963   4.228   1.912   1.740
 3715SOL    HW110964   4.186   1.855   1.670
 3715SOL    HW210965   4.162   1.981   1.772
 3716SOL     OW10966   4.297   2.732   1.029
 3716SOL    HW110967   4.341   2.821   1.020
 3716SOL    HW210968   4.234   2.732   1.106
 3717SOL     OW10969   5.084   2.724   1.045
 3717SOL    HW110970   5.009   2.724   0.979
 3717SOL    HW210971   5.121   2.632   1.054
 3718SOL     OW10972   4.933   2.387   0.275
 3718SOL    HW110973   4.946   2.303   0.329
 3718SOL    HW210974   4.904   2.461   0.335
 3719SOL     OW10975   4.031   2.075   1.231
 3719SOL    HW110976   4.008   2.112   1.321
 3719SOL    HW210977   4.001   1.980   1.225
 3720SOL     OW10978   3.761   3.172   1.282
 3720SOL    HW110979   3.814   3.123   1.350
 3720SOL    HW210980   3.783   3.270   1.287
 3721SOL     OW10981   4.456   2.496   1.064
 3721SOL    HW110982   4.515   2.470   0.988
 3721SOL    HW210983   4.428   2.592   1.053
 3722SOL     OW10984   4.031   1.925   0.618
 3722SOL    HW110985   4.020   2.019   0.651
 3722SOL    HW210986   4.026   1.862   0.695
 3723SOL     OW10987   5.346   2.229   0.374
 3723SOL    HW110988   5.348   2.153   0.438
 3723SOL    HW210989   5.298   2.306   0.414
 3724SOL     OW10990   4.747   2.628   0.966
 3724SOL    HW110991   4.762   2.649   1.062
 3724SOL    HW210992   4.717   2.533   0.957
 3725SOL     OW10993   4.704   3.435   1.700
 3725SOL    HW110994   4.684   3.479   1.612
 3725SOL    HW210995   4.743   3.344   1.684
 3726SOL     OW10996   4.074   2.760   1.804
 3726SOL    HW110997   4.150   2.804   1.852
 3726SOL    HW210998   4.109   2.713   1.722
 3727SOL     OW10999   5.027   2.700   0.042
 3727SOL    HW111000   5.061   2.607   0.057
 3727SOL    HW211001   5.045   2.727  -0.053
 3728SOL     OW11002   4.792   3.195   0.849
 3728SOL    HW111003   4.799   3.111   0.794
 3728SOL    HW211004   4.854   3.264   0.813
 3729SOL     OW11005   4.043   2.672   0.949
 3729SOL    HW111006   4.136   2.708   0.954
 3729SOL    HW211007   4.037   2.587   1.001
 3730SOL     OW11008   4.063   2.371   1.006
 3730SOL    HW111009   4.011   2.288   0.989
 3730SOL    HW211010   4.140   2.376   0.942
 3731SOL     OW11011   4.862   2.242   1.678
 3731SOL    HW111012   4.817   2.305   1.742
 3731SOL    HW211013   4.955   2.273   1.661
 3732SOL     OW11014   4.884   2.069   1.477
 3732SOL    HW111015   4.884   2.133   1.554
 3732SOL    HW211016   4.912   2.117   1.394
 3733SOL     OW11017   3.812   3.663   0.927
 3733SOL    HW111018   3.770   3.577   0.900
 3733SOL    HW211019   3.906   3.666   0.893
 3734SOL     OW11020   4.228   3.430   0.910
 3734SOL    HW111021   4.294   3.504   0.919
 3734SOL    HW211022   4.272   3.351   0.868
 3735SOL     OW11023   4.726   2.658   1.238
 3735SOL    HW111024   4.767   2.626   1.324
 3735SOL    HW211025   4.630   2.631   1.235
 3736SOL     OW11026   3.764   2.406   1.114
 3736SOL    HW111027   3.849   2.373   1.073
 3736SOL    HW211028   3.777   2.421   1.212
 3737SOL     OW11029   3.913   2.382   1.722
 3737SOL    HW111030   3.972   2.342   1.652
 3737SOL    HW211031   3.855   2.453   1.681
 3738SOL     OW11032   4.539   2.434   0.325
 3738SOL    HW111033   4.546   2.345   0.279
 3738SOL    HW211034   4.445   2.468   0.317
 3739SOL     OW11035   3.976   3.426   1.744
 3739SOL    HW111036   3.946   3.483   1.820
 3739SOL    HW211037   3.969   3.329   1.770
 3740SOL     OW11038   4.395   2.326   1.269
 3740SOL    HW111039   4.361   2.237   1.239
 3740SOL    HW211040   4.421   2.380   1.189
 3741SOL     OW11041   4.654   3.540   1.465
 3741SOL    HW111042   4.630   3.522   1.370
 3741SOL    HW211043   4.684   3.634   1.475
 3742SOL     OW11044   4.197   2.362   0.191
 3742SOL    HW111045   4.258   2.442   0.195
 3742SOL    HW211046   4.102   2.393   0.198
 3743SOL     OW11047   3.883   2.999   1.466
 3743SOL    HW111048   3.905   2.938   1.542
 3743SOL    HW211049   3.893   2.950   1.380
 3744SOL     OW11050   5.071   2.921   1.234
 3744SOL    HW111051   5.095   2.858   1.160
 3744SOL    HW211052   4.981   2.961   1.216
 3745SOL     OW11053   4.976   3.593   1.128
 3745SOL    HW111054   5.060   3.598   1.074
 3745SOL    HW211055   4.953   3.497   1.146
 3746SOL     OW11056   3.807   3.120   1.022
 3746SOL    HW111057   3.802   3.119   1.122
 3746SOL    HW211058   3.724   3.079   0.984
 3747SOL     OW11059   4.412   3.524   1.716
 3747SOL    HW111060   4.356   3.605   1.725
 3747SOL    HW211061   4.464   3.528   1.630
 3748SOL     OW11062   4.627   1.948   0.133
 3748SOL    HW111063   4.678   1.949   0.047
 3748SOL    HW211064   4.683   1.906   0.204
 3749SOL     OW11065   5.112   3.435   0.477
 3749SOL    HW111066   5.179   3.447   0.403
 3749SOL    HW211067   5.072   3.524   0.500
 3750SOL     OW11068   3.854   3.656   1.851
 3750SOL    HW111069   3.813   3.582   1.904
 3750SOL    HW211070   3.918   3.707   1.909
 3751SOL     OW11071   5.004   2.789   0.672
 3751SOL    HW111072   5.064   2.708   0.674
 3751SOL    HW211073   5.044   2.858   0.612
 3752SOL     OW11074   4.554   3.135   1.422
 3752SOL    HW111075   4.549   3.168   1.517
 3752SOL    HW211076   4.468   3.154   1.376
 3753SOL     OW11077   4.396   3.478   0.154
 3753SOL    HW111078   4.405   3.488   0.055
 3753SOL    HW211079   4.356   3.389   0.175
 3754SOL     OW11080   3.987   2.188   0.720
 3754SOL    HW111081   3.908   2.239   0.686
 3754SOL    HW211082   3.978   2.173   0.818
 3755SOL     OW11083   4.918   3.474   0.031
 3755SOL    HW111084   4.924   3.381   0.068
 3755SOL    HW211085   4.859   3.474  -0.049
 3756SOL     OW11086   4.546   2.864   1.372
 3756SOL    HW111087   4.586   2.863   1.280
 3756SOL    HW211088   4.556   2.956   1.412
 3757SOL     OW11089   4.640   2.772   0.291
 3757SOL    HW111090   4.703   2.810   0.223
 3757SOL    HW211091   4.680   2.689   0.330
 3758SOL     OW11092   4.096   3.150   1.490
 3758SOL    HW111093   4.083   3.243   1.456
 3758SOL    HW211094   4.012   3.098   1.477
 3759SOL     OW11095   4.763   2.960   0.696
 3759SOL    HW111096   4.693   2.913   0.750
 3759SOL    HW211097   4.822   2.892   0.653
 3760SOL     OW11098   4.738   2.098   0.971
 3760SOL    HW111099   4.730   2.062   0.878
 3760SOL    HW211100   4.736   2.022   1.036
 3761SOL     OW11101   4.314   3.349   0.491
 3761SOL    HW111102   4.356   3.291   0.421
 3761SOL    HW211103   4.270   3.428   0.447
 3762SOL     OW11104   3.979   3.210   0.290
 3762SOL    HW111105   3.883   3.211   0.263
 3762SOL    HW211106   3.991   3.263   0.374
 3763SOL     OW11107   3.829   2.875   1.726
 3763SOL    HW111108   3.752   2.842   1.780
 3763SOL    HW211109   3.914   2.845   1.768
 3764SOL     OW11110   4.396   2.065   1.489
 3764SOL    HW111111   4.486   2.049   1.449
 3764SOL    HW211112   4.404   2.070   1.588
 3765SOL     OW11113   5.164   2.718   1.398
 3765SOL    HW111114   5.107   2.770   1.335
 3765SOL    HW211115   5.260   2.730   1.374
 3766SOL     OW11116   3.796   2.028   0.318
 3766SOL    HW111117   3.779   2.111   0.264
 3766SOL    HW211118   3.886   1.991   0.296
 3767SOL     OW11119   4.337   2.704   1.431
 3767SOL    HW111120   4.393   2.785   1.414
 3767SOL    HW211121   4.396   2.624   1.434
 3768SOL     OW11122   4.440   2.427   1.708
 3768SOL    HW111123   4.459   2.492   1.782
 3768SOL    HW211124   4.500   2.347   1.717
 3769SOL     OW11125   4.114   3.603   1.560
 3769SOL    HW111126   4.023   3.644   1.558
 3769SOL    HW211127   4.107   3.509   1.592
 3770SOL     OW11128   4.949   2.187   0.449
 3770SOL    HW111129   5.014   2.113   0.438
 3770SOL    HW211130   4.969   2.237   0.533
 3771SOL     OW11131   4.318   2.607   0.652
 3771SOL    HW111132   4.368   2.692   0.633
 3771SOL    HW211133   4.230   2.609   0.604
 3772SOL     OW11134   4.583   3.236   0.016
 3772SOL    HW111135   4.537   3.251   0.104
 3772SOL    HW211136   4.627   3.321  -0.014
 3773SOL     OW11137   4.385   3.652   0.953
 3773SOL    HW111138   4.339   3.740   0.940
 3773SOL    HW211139   4.484   3.664   0.946
 3774SOL     OW11140   4.583   2.818   0.861
 3774SOL    HW111141   4.637   2.749   0.909
 3774SOL    HW211142   4.551   2.887   0.927
 3775SOL     OW11143   4.807   2.846   0.087
 3775SOL    HW111144   4.784   2.899   0.005
 3775SOL    HW211145   4.888   2.790   0.068
 3776SOL     OW11146   3.945   3.176   1.844
 3776SOL    HW111147   3.880   3.103   1.823
 3776SOL    HW211148   3.949   3.190   1.942
 3777SOL     OW11149   3.803   3.102   0.653
 3777SOL    HW111150   3.802   3.055   0.741
 3777SOL    HW211151   3.885   3.074   0.602
 3778SOL     OW11152   4.396   3.253   1.624
 3778SOL    HW111153   4.318   3.203   1.662
 3778SOL    HW211154   4.393   3.348   1.655
 3779SOL     OW11155   4.152   2.286   0.520
 3779SOL    HW111156   4.182   2.214   0.458
 3779SOL    HW211157   4.113   2.246   0.603
 3780SOL     OW11158   4.041   2.409   1.280
 3780SOL    HW111159   4.079   2.350   1.352
 3780SOL    HW211160   4.081   2.383   1.192
 3781SOL     OW11161   4.536   3.448   0.687
 3781SOL    HW111162   4.568   3.458   0.593
 3781SOL    HW211163   4.457   3.386   0.689
 3782SOL     OW11164   4.725   1.896   1.154
 3782SOL    HW111165   4.662   1.824   1.123
 3782SOL    HW211166   4.818   1.860   1.154
 3783SOL     OW11167   4.494   3.192   0.301
 3783SOL    HW111168   4.448   3.105   0.318
 3783SOL    HW211169   4.585   3.189   0.342
 3784SOL     OW11170   4.342   3.429   1.284
 3784SOL    HW111171   4.337   3.511   1.341
 3784SOL    HW211172   4.431   3.426   1.239
 3785SOL     OW11173   3.763   2.939   0.300
 3785SOL    HW111174   3.862   2.928   0.291
 3785SOL    HW211175   3.723   2.853   0.332
 3786SOL     OW11176   4.599   3.508   0.337
 3786SOL    HW111177   4.522   3.473   0.283
 3786SOL    HW211178   4.567   3.579   0.399
 3787SOL     OW11179   3.954   2.490   1.975
 3787SOL    HW111180   3.861   2.488   2.012
 3787SOL    HW211181   3.955   2.451   1.883
 3788SOL     OW11182   3.949   2.137   2.858
 3788SOL    HW111183   3.984   2.120   2.950
 3788SOL    HW211184   3.861   2.092   2.846
 3789SOL     OW11185   4.293   3.137   3.027
 3789SOL    HW111186   4.200   3.130   2.990
 3789SOL    HW211187   4.304   3.226   3.071
 3790SOL     OW11188   4.859   2.565   2.579
 3790SOL    HW111189   4.916   2.643   2.554
 3790SOL    HW211190   4.799   2.591   2.655
 3791SOL     OW11191   4.492   3.006   2.885
 3791SOL    HW111192   4.414   3.023   2.945
 3791SOL    HW211193   4.526   3.093   2.849
 3792SOL     OW11194   4.574   2.660   3.685
 3792SOL    HW111195   4.570   2.736   3.750
 3792SOL    HW211196   4.596   2.696   3.594
 3793SOL     OW11197   4.409   2.874   2.527
 3793SOL    HW111198   4.478   2.858   2.597
 3793SOL    HW211199   4.336   2.931   2.565
 3794SOL     OW11200   4.410   3.023   3.665
 3794SOL    HW111201   4.470   3.102   3.679
 3794SOL    HW211202   4.324   3.054   3.624
 3795SOL     OW11203   4.059   3.297   2.923
 3795SOL    HW111204   3.981   3.266   2.870
 3795SOL    HW211205   4.117   3.355   2.866
 3796SOL     OW11206   4.162   2.254   3.361
 3796SOL    HW111207   4.244   2.198   3.370
 3796SOL    HW211208   4.081   2.196   3.365
 3797SOL     OW11209   3.955   3.575   2.345
 3797SOL    HW111210   3.989   3.652   2.399
 3797SOL    HW211211   3.999   3.575   2.255
 3798SOL     OW11212   4.851   3.203   3.552
 3798SOL    HW111213   4.898   3.203   3.640
 3798SOL    HW211214   4.803   3.116   3.541
 3799SOL     OW11215   3.954   3.296   2.400
 3799SOL    HW111216   3.928   3.392   2.400
 3799SOL    HW211217   3.883   3.242   2.445
 3800SOL     OW11218   3.964   2.953   2.748
 3800SOL    HW111219   3.978   2.869   2.800
 3800SOL    HW211220   3.909   3.017   2.803
 3801SOL     OW11221   4.344   3.648   3.301
 3801SOL    HW111222   4.252   3.631   3.336
 3801SOL    HW211223   4.372   3.740   3.327
 3802SOL     OW11224   4.330   2.826   1.985
 3802SOL    HW111225   4.337   2.910   1.931
 3802SOL    HW211226   4.376   2.839   2.073
 3803SOL     OW11227   3.751   3.458   1.979
 3803SOL    HW111228   3.732   3.362   2.000
 3803SOL    HW211229   3.718   3.516   2.054
 3804SOL     OW11230   3.837   2.599   3.459
 3804SOL    HW111231   3.925   2.586   3.504
 3804SOL    HW211232   3.824   2.696   3.437
 3805SOL     OW11233   4.337   3.227   2.588
 3805SOL    HW111234   4.288   3.140   2.597
 3805SOL    HW211235   4.314   3.270   2.501
 3806SOL     OW11236   5.017   3.090   3.285
 3806SOL    HW111237   5.054   3.017   3.227
 3806SOL    HW211238   5.069   3.095   3.370
 3807SOL     OW11239   4.533   1.866   2.364
 3807SOL    HW111240   4.573   1.957   2.355
 3807SOL    HW211241   4.433   1.874   2.370
 3808SOL     OW11242   3.921   2.838   3.126
 3808SOL    HW111243   4.010   2.793   3.112
 3808SOL    HW211244   3.848   2.773   3.107
 3809SOL     OW11245   4.911   3.654   3.478
 3809SOL    HW111246   4.935   3.714   3.402
 3809SOL    HW211247   4.918   3.559   3.448
 3810SOL     OW11248   4.041   2.113   3.663
 3810SOL    HW111249   4.112   2.184   3.669
 3810SOL    HW211250   3.953   2.152   3.691
 3811SOL     OW11251   4.322   2.591   2.132
 3811SOL    HW111252   4.346   2.660   2.064
 3811SOL    HW211253   4.244   2.624   2.186
 3812SOL     OW11254   5.005   2.207   2.806
 3812SOL    HW111255   4.919   2.157   2.793
 3812SOL    HW211256   5.067   2.153   2.862
 3813SOL     OW11257   4.531   2.467   3.327
 3813SOL    HW111258   4.484   2.464   3.416
 3813SOL    HW211259   4.480   2.412   3.261
 3814SOL     OW11260   4.697   2.752   3.434
 3814SOL    HW111261   4.743   2.668   3.405
 3814SOL    HW211262   4.641   2.786   3.359
 3815SOL     OW11263   4.715   2.272   3.104
 3815SOL    HW111264   4.638   2.306   3.158
 3815SOL    HW211265   4.681   2.221   3.025
 3816SOL     OW11266   4.765   2.563   2.291
 3816SOL    HW111267   4.791   2.559   2.387
 3816SOL    HW211268   4.680   2.512   2.277
 3817SOL     OW11269   3.854   3.683   3.433
 3817SOL    HW111270   3.844   3.668   3.532
 3817SOL    HW211271   3.768   3.719   3.397
 3818SOL     OW11272   4.589   2.210   2.057
 3818SOL    HW111273   4.648   2.273   2.008
 3818SOL    HW211274   4.608   2.116   2.028
 3819SOL     OW11275   4.274   2.058   2.747
 3819SOL    HW111276   4.269   2.053   2.847
 3819SOL    HW211277   4.276   2.154   2.718
 3820SOL     OW11278   4.732   3.318   2.339
 3820SOL    HW111279   4.686   3.390   2.287
 3820SOL    HW211280   4.728   3.338   2.437
 3821SOL     OW11281   4.075   3.663   2.715
 3821SOL    HW111282   4.125   3.577   2.721
 3821SOL    HW211283   4.140   3.740   2.712
 3822SOL     OW11284   4.951   3.412   3.368
 3822SOL    HW111285   4.957   3.335   3.432
 3822SOL    HW211286   4.899   3.386   3.288
 3823SOL     OW11287   4.045   2.805   2.104
 3823SOL    HW111288   4.127   2.844   2.062
 3823SOL    HW211289   4.018   2.723   2.055
 3824SOL     OW11290   4.185   3.128   3.589
 3824SOL    HW111291   4.135   3.129   3.503
 3824SOL    HW211292   4.122   3.110   3.665
 3825SOL     OW11293   4.835   3.638   2.099
 3825SOL    HW111294   4.775   3.576   2.149
 3825SOL    HW211295   4.866   3.594   2.014
 3826SOL     OW11296   3.926   2.147   3.360
 3826SOL    HW111297   3.846   2.207   3.347
 3826SOL    HW211298   3.916   2.098   3.446
 3827SOL     OW11299   4.188   3.605   2.185
 3827SOL    HW111300   4.221   3.644   2.271
 3827SOL    HW211301   4.264   3.598   2.120
 3828SOL     OW11302   3.973   3.647   3.103
 3828SOL    HW111303   4.030   3.582   3.153
 3828SOL    HW211304   3.957   3.614   3.010
 3829SOL     OW11305   4.664   3.560   2.766
 3829SOL    HW111306   4.744   3.503   2.787
 3829SOL    HW211307   4.615   3.520   2.689
 3830SOL     OW11308   4.106   2.562   2.342
 3830SOL    HW111309   4.151   2.472   2.339
 3830SOL    HW211310   4.012   2.551   2.375
 3831SOL     OW11311   4.338   1.984   1.979
 3831SOL    HW111312   4.436   1.962   1.986
 3831SOL    HW211313   4.307   1.967   1.886
 3832SOL     OW11314   4.505   2.126   3.611
 3832SOL    HW111315   4.572   2.065   3.654
 3832SOL    HW211316   4.432   2.145   3.676
 3833SOL     OW11317   4.612   3.376   3.057
 3833SOL    HW111318   4.589   3.351   2.963
 3833SOL    HW211319   4.673   3.307   3.096
 3834SOL     OW11320   4.527   3.264   2.786
 3834SOL    HW111321   4.617   3.278   2.744
 3834SOL    HW211322   4.456   3.266   2.715
 3835SOL     OW11323   4.646   2.365   2.761
 3835SOL    HW111324   4.621   2.356   2.665
 3835SOL    HW211325   4.694   2.283   2.792
 3836SOL     OW11326   4.263   1.926   2.374
 3836SOL    HW111327   4.182   1.927   2.432
 3836SOL    HW211328   4.266   2.009   2.319
 3837SOL     OW11329   4.021   1.897   2.033
 3837SOL    HW111330   4.070   1.981   2.012
 3837SOL    HW211331   4.083   1.832   2.078
 3838SOL     OW11332   4.659   2.098   2.342
 3838SOL    HW111333   4.611   2.139   2.264
 3838SOL    HW211334   4.758   2.096   2.323
 3839SOL     OW11335   4.800   2.545   3.326
 3839SOL    HW111336   4.720   2.484   3.329
 3839SOL    HW211337   4.881   2.492   3.302
 3840SOL     OW11338   4.951   3.432   2.655
 3840SOL    HW111339   4.972   3.506   2.590
 3840SOL    HW211340   5.019   3.432   2.728
 3841SOL     OW11341   4.183   3.014   2.603
 3841SOL    HW111342   4.112   2.987   2.668
 3841SOL    HW211343   4.157   2.986   2.510
 3842SOL     OW11344   4.995   3.659   2.453
 3842SOL    HW111345   5.039   3.723   2.389
 3842SOL    HW211346   4.945   3.711   2.523
 3843SOL     OW11347   4.756   2.411   1.878
 3843SOL    HW111348   4.715   2.493   1.839
 3843SOL    HW211349   4.820   2.437   1.951
 3844SOL     OW11350   3.802   2.418   3.248
 3844SOL    HW111351   3.894   2.417   3.207
 3844SOL    HW211352   3.796   2.492   3.315
 3845SOL     OW11353   4.285   2.084   3.009
 3845SOL    HW111354   4.323   2.000   3.046
 3845SOL    HW211355   4.197   2.103   3.053
 3846SOL     OW11356   4.590   2.316   2.504
 3846SOL    HW111357   4.558   2.388   2.442
 3846SOL    HW211358   4.614   2.235   2.451
 3847SOL     OW11359   4.741   1.901   2.615
 3847SOL    HW111360   4.669   1.906   2.546
 3847SOL    HW211361   4.717   1.832   2.684
 3848SOL     OW11362   4.212   3.247   2.036
 3848SOL    HW111363   4.125   3.232   2.083
 3848SOL    HW211364   4.195   3.273   1.941
 3849SOL     OW11365   5.388   3.142   2.519
 3849SOL    HW111366   5.487   3.150   2.533
 3849SOL    HW211367   5.343   3.226   2.550
 3850SOL     OW11368   4.251   2.118   2.190
 3850SOL    HW111369   4.278   2.059   2.115
 3850SOL    HW211370   4.251   2.213   2.159
 3851SOL     OW11371   4.788   3.209   3.202
 3851SOL    HW111372   4.708   3.186   3.257
 3851SOL    HW211373   4.871   3.183   3.251
 3852SOL     OW11374   4.835   3.057   2.962
 3852SOL    HW111375   4.795   3.101   3.043
 3852SOL    HW211376   4.794   3.094   2.879
 3853SOL     OW11377   4.639   1.951   3.264
 3853SOL    HW111378   4.664   1.931   3.169
 3853SOL    HW211379   4.711   2.007   3.306
 3854SOL     OW11380   4.704   2.978   3.581
 3854SOL    HW111381   4.605   2.984   3.591
 3854SOL    HW211382   4.727   2.898   3.525
 3855SOL     OW11383   4.429   2.912   2.230
 3855SOL    HW111384   4.415   2.919   2.329
 3855SOL    HW211385   4.513   2.861   2.212
 3856SOL     OW11386   4.134   2.675   3.113
 3856SOL    HW111387   4.220   2.687   3.163
 3856SOL    HW211388   4.092   2.588   3.140
 3857SOL     OW11389   4.998   2.248   3.124
 3857SOL    HW111390   5.019   2.322   3.188
 3857SOL    HW211391   4.909   2.265   3.081
 3858SOL     OW11392   3.788   3.426   3.193
 3858SOL    HW111393   3.742   3.508   3.159
 3858SOL    HW211394   3.886   3.445   3.202
 3859SOL     OW11395   4.091   2.962   2.363
 3859SOL    HW111396   4.084   3.045   2.307
 3859SOL    HW211397   4.095   2.882   2.303
 3860SOL     OW11398   4.290   2.399   2.727
 3860SOL    HW111399   4.302   2.465   2.653
 3860SOL    HW211400   4.336   2.433   2.810
 3861SOL     OW11401   4.976   3.210   2.250
 3861SOL    HW111402   5.026   3.287   2.290
 3861SOL    HW211403   4.881   3.212   2.282
 3862SOL     OW11404   4.078   3.372   3.191
 3862SOL    HW111405   4.057   3.328   3.104
 3862SOL    HW211406   4.175   3.398   3.194
 3863SOL     OW11407   4.126   2.613   3.460
 3863SOL    HW111408   4.194   2.668   3.413
 3863SOL    HW211409   4.166   2.525   3.487
 3864SOL     OW11410   4.737   1.967   3.632
 3864SOL    HW111411   4.743   2.052   3.580
 3864SOL    HW211412   4.769   1.891   3.575
 3865SOL     OW11413   4.228   1.912   3.602
 3865SOL    HW111414   4.186   1.855   3.532
 3865SOL    HW211415   4.162   1.981   3.634
 3866SOL     OW11416   4.297   2.732   2.891
 3866SOL    HW111417   4.341   2.821   2.882
 3866SOL    HW211418   4.234   2.732   2.968
 3867SOL     OW11419   5.084   2.724   2.907
 3867SOL    HW111420   5.009   2.724   2.841
 3867SOL    HW211421   5.121   2.632   2.916
 3868SOL     OW11422   4.933   2.387   2.137
 3868SOL    HW111423   4.946   2.303   2.191
 3868SOL    HW211424   4.904   2.461   2.197
 3869SOL     OW11425   4.031   2.075   3.093
 3869SOL    HW111426   4.008   2.112   3.183
 3869SOL    HW211427   4.001   1.980   3.087
 3870SOL     OW11428   3.761   3.172   3.144
 3870SOL    HW111429   3.814   3.123   3.212
 3870SOL    HW211430   3.783   3.270   3.149
 3871SOL     OW11431   4.456   2.496   2.926
 3871SOL    HW111432   4.515   2.470   2.850
 3871SOL    HW211433   4.428   2.592   2.915
 3872SOL     OW11434   4.031   1.925   2.480
 3872SOL    HW111435   4.020   2.019   2.513
 3872SOL    HW211436   4.026   1.862   2.557
 3873SOL     OW11437   5.346   2.229   2.236
 3873SOL    HW111438   5.348   2.153   2.300
 3873SOL    HW211439   5.298   2.306   2.276
 3874SOL     OW11440   4.747   2.628   2.828
 3874SOL    HW111441   4.762   2.649   2.924
 3874SOL    HW211442   4.717   2.533   2.819
 3875SOL     OW11443   4.704   3.435   3.562
 3875SOL    HW111444   4.684   3.479   3.474
 3875SOL    HW211445   4.743   3.344   3.546
 3876SOL     OW11446   4.074   2.760   3.666
 3876SOL    HW111447   4.150   2.804   3.714
 3876SOL    HW211448   4.109   2.713   3.584
 3877SOL     OW11449   5.027   2.700   1.904
 3877SOL    HW111450   5.061   2.607   1.919
 3877SOL    HW211451   5.045   2.727   1.809
 3878SOL     OW11452   4.792   3.195   2.711
 3878SOL    HW111453   4.799   3.111   2.656
 3878SOL    HW211454   4.854   3.264   2.675
 3879SOL     OW11455   4.043   2.672   2.811
 3879SOL    HW111456   4.136   2.708   2.816
 3879SOL    HW211457   4.037   2.587   2.863
 3880SOL     OW11458   4.063   2.371   2.868
 3880SOL    HW111459   4.011   2.288   2.851
 3880SOL    HW211460   4.140   2.376   2.804
 3881SOL     OW11461   4.862   2.242   3.540
 3881SOL    HW111462   4.817   2.305   3.604
 3881SOL    HW211463   4.955   2.273   3.523
 3882SOL     OW11464   4.884   2.069   3.339
 3882SOL    HW111465   4.884   2.133   3.416
 3882SOL    HW211466   4.912   2.117   3.256
 3883SOL     OW11467   3.732   3.188   2.062
 3883SOL    HW111468   3.639   3.209   2.031
 3883SOL    HW211469   3.742   3.089   2.075
 3884SOL     OW11470   3.812   3.663   2.789
 3884SOL    HW111471   3.770   3.577   2.762
 3884SOL    HW211472   3.906   3.666   2.755
 3885SOL     OW11473   4.228   3.430   2.772
 3885SOL    HW111474   4.294   3.504   2.781
 3885SOL    HW211475   4.272   3.351   2.730
 3886SOL     OW11476   4.726   2.658   3.100
 3886SOL    HW111477   4.767   2.626   3.186
 3886SOL    HW211478   4.630   2.631   3.097
 3887SOL     OW11479   3.764   2.406   2.976
 3887SOL    HW111480   3.849   2.373   2.935
 3887SOL    HW211481   3.777   2.421   3.074
 3888SOL     OW11482   3.913   2.382   3.584
 3888SOL    HW111483   3.972   2.342   3.514
 3888SOL    HW211484   3.855   2.453   3.543
 3889SOL     OW11485   4.539   2.434   2.187
 3889SOL    HW111486   4.546   2.345   2.141
 3889SOL    HW211487   4.445   2.468   2.179
 3890SOL     OW11488   3.976   3.426   3.606
 3890SOL    HW111489   3.946   3.483   3.682
 3890SOL    HW211490   3.969   3.329   3.632
 3891SOL     OW11491   4.395   2.326   3.131
 3891SOL    HW111492   4.361   2.237   3.101
 3891SOL    HW211493   4.421   2.380   3.051
 3892SOL     OW11494   4.654   3.540   3.327
 3892SOL    HW111495   4.630   3.522   3.232
 3892SOL    HW211496   4.684   3.634   3.337
 3893SOL     OW11497   4.197   2.362   2.053
 3893SOL    HW111498   4.258   2.442   2.057
 3893SOL    HW211499   4.102   2.393   2.060
 3894SOL     OW11500   3.883   2.999   3.328
 3894SOL    HW111501   3.905   2.938   3.404
 3894SOL    HW211502   3.893   2.950   3.242
 3895SOL     OW11503   5.071   2.921   3.096
 3895SOL    HW111504   5.095   2.858   3.022
 3895SOL    HW211505   4.981   2.961   3.078
 3896SOL     OW11506   4.976   3.593   2.990
 3896SOL    HW111507   5.060   3.598   2.936
 3896SOL    HW211508   4.953   3.497   3.008
 3897SOL     OW11509   3.807   3.120   2.884
 3897SOL    HW111510   3.802   3.119   2.984
 3897SOL    HW211511   3.724   3.079   2.846
 3898SOL     OW11512   4.412   3.524   3.578
 3898SOL    HW111513   4.356   3.605   3.587
 3898SOL    HW211514   4.464   3.528   3.492
 3899SOL     OW11515   5.112   3.435   2.339
 3899SOL    HW111516   5.179   3.447   2.265
 3899SOL    HW211517   5.072   3.524   2.362
 3900SOL     OW11518   3.854   3.656   3.713
 3900SOL    HW111519   3.813   3.582   3.766
 3900SOL    HW211520   3.918   3.707   3.771
 3901SOL     OW11521   5.004   2.789   2.534
 3901SOL    HW111522   5.064   2.708   2.536
 3901SOL    HW211523   5.044   2.858   2.474
 3902SOL     OW11524   4.554   3.135   3.284
 3902SOL    HW111525   4.549   3.168   3.379
 3902SOL    HW211526   4.468   3.154   3.238
 3903SOL     OW11527   4.396   3.478   2.016
 3903SOL    HW111528   4.405   3.488   1.917
 3903SOL    HW211529   4.356   3.389   2.037
 3904SOL     OW11530   4.918   3.474   1.893
 3904SOL    HW111531   4.924   3.381   1.930
 3904SOL    HW211532   4.859   3.474   1.813
 3905SOL     OW11533   4.546   2.864   3.234
 3905SOL    HW111534   4.586   2.863   3.142
 3905SOL    HW211535   4.556   2.956   3.274
 3906SOL     OW11536   4.640   2.772   2.153
 3906SOL    HW111537   4.703   2.810   2.085
 3906SOL    HW211538   4.680   2.689   2.192
 3907SOL     OW11539   4.096   3.150   3.352
 3907SOL    HW111540   4.083   3.243   3.318
 3907SOL    HW211541   4.012   3.098   3.339
 3908SOL     OW11542   4.763   2.960   2.558
 3908SOL    HW111543   4.693   2.913   2.612
 3908SOL    HW211544   4.822   2.892   2.515
 3909SOL     OW11545   4.738   2.098   2.833
 3909SOL    HW111546   4.730   2.062   2.740
 3909SOL    HW211547   4.736   2.022   2.898
 3910SOL     OW11548   4.314   3.349   2.353
 3910SOL    HW111549   4.356   3.291   2.283
 3910SOL    HW211550   4.270   3.428   2.309
 3911SOL     OW11551   3.979   3.210   2.152
 3911SOL    HW111552   3.883   3.211   2.125
 3911SOL    HW211553   3.991   3.263   2.236
 3912SOL     OW11554   3.829   2.875   3.588
 3912SOL    HW111555   3.752   2.842   3.642
 3912SOL    HW211556   3.914   2.845   3.630
 3913SOL     OW11557   4.396   2.065   3.351
 3913SOL    HW111558   4.486   2.049   3.311
 3913SOL    HW211559   4.404   2.070   3.450
 3914SOL     OW11560   3.799   2.207   1.895
 3914SOL    HW111561   3.707   2.179   1.866
 3914SOL    HW211562   3.830   2.284   1.839
 3915SOL     OW11563   5.164   2.718   3.260
 3915SOL    HW111564   5.107   2.770   3.197
 3915SOL    HW211565   5.260   2.730   3.236
 3916SOL     OW11566   3.796   2.028   2.180
 3916SOL    HW111567   3.779   2.111   2.126
 3916SOL    HW211568   3.886   1.991   2.158
 3917SOL     OW11569   4.337   2.704   3.293
 3917SOL    HW111570   4.393   2.785   3.276
 3917SOL    HW211571   4.396   2.624   3.296
 3918SOL     OW11572   4.440   2.427   3.570
 3918SOL    HW111573   4.459   2.492   3.644
 3918SOL    HW211574   4.500   2.347   3.579
 3919SOL     OW11575   4.114   3.603   3.422
 3919SOL    HW111576   4.023   3.644   3.420
 3919SOL    HW211577   4.107   3.509   3.454
 3920SOL     OW11578   4.949   2.187   2.311
 3920SOL    HW111579   5.014   2.113   2.300
 3920SOL    HW211580   4.969   2.237   2.395
 3921SOL     OW11581   4.318   2.607   2.514
 3921SOL    HW111582   4.368   2.692   2.495
 3921SOL    HW211583   4.230   2.609   2.466
 3922SOL     OW11584   4.583   3.236   1.878
 3922SOL    HW111585   4.537   3.251   1.966
 3922SOL    HW211586   4.627   3.321   1.848
 3923SOL     OW11587   4.385   3.652   2.815
 3923SOL    HW111588   4.339   3.740   2.802
 3923SOL    HW211589   4.484   3.664   2.808
 3924SOL     OW11590   4.583   2.818   2.723
 3924SOL    HW111591   4.637   2.749   2.771
 3924SOL    HW211592   4.551   2.887   2.789
 3925SOL     OW11593   4.807   2.846   1.949
 3925SOL    HW111594   4.784   2.899   1.867
 3925SOL    HW211595   4.888   2.790   1.930
 3926SOL     OW11596   3.945   3.176   3.706
 3926SOL    HW111597   3.880   3.103   3.685
 3926SOL    HW211598   3.949   3.190   3.804
 3927SOL     OW11599   3.803   3.102   2.515
 3927SOL    HW111600   3.802   3.055   2.603
 3927SOL    HW211601   3.885   3.074   2.464
 3928SOL     OW11602   4.396   3.253   3.486
 3928SOL    HW111603   4.318   3.203   3.524
 3928SOL    HW211604   4.393   3.348   3.517
 3929SOL     OW11605   4.041   2.409   3.142
 3929SOL    HW111606   4.079   2.350   3.214
 3929SOL    HW211607   4.081   2.383   3.054
 3930SOL     OW11608   4.536   3.448   2.549
 3930SOL    HW111609   4.568   3.458   2.455
 3930SOL    HW211610   4.457   3.386   2.551
 3931SOL     OW11611   4.725   1.896   3.016
 3931SOL    HW111612   4.662   1.824   2.985
 3931SOL    HW211613   4.818   1.860   3.016
 3932SOL     OW11614   4.494   3.192   2.163
 3932SOL    HW111615   4.448   3.105   2.180
 3932SOL    HW211616   4.585   3.189   2.204
 3933SOL     OW11617   4.342   3.429   3.146
 3933SOL    HW111618   4.337   3.511   3.203
 3933SOL    HW211619   4.431   3.426   3.101
 3934SOL     OW11620   5.076   1.914   2.030
 3934SOL    HW111621   5.111   1.873   1.946
 3934SOL    HW211622   4.986   1.876   2.050
 3935SOL     OW11623   3.763   2.939   2.162
 3935SOL    HW111624   3.862   2.928   2.153
 3935SOL    HW211625   3.723   2.853   2.194
 3936SOL     OW11626   4.599   3.508   2.199
 3936SOL    HW111627   4.522   3.473   2.145
 3936SOL    HW211628   4.567   3.579   2.261
 3937SOL     OW11629   3.954   2.490   3.837
 3937SOL    HW111630   3.861   2.488   3.874
 3937SOL    HW211631   3.955   2.451   3.745
 3938SOL     OW11632   3.949   2.137   4.720
 3938SOL    HW111633   3.984   2.120   4.812
 3938SOL    HW211634   3.861   2.092   4.708
 3939SOL     OW11635   3.743   2.230   4.371
 3939SOL    HW111636   3.661   2.273   4.410
 3939SOL    HW211637   3.715   2.157   4.308
 3940SOL     OW11638   4.293   3.137   4.889
 3940SOL    HW111639   4.200   3.130   4.852
 3940SOL    HW211640   4.304   3.226   4.933
 3941SOL     OW11641   4.859   2.565   4.441
 3941SOL    HW111642   4.916   2.643   4.416
 3941SOL    HW211643   4.799   2.591   4.517
 3942SOL     OW11644   4.492   3.006   4.747
 3942SOL    HW111645   4.414   3.023   4.807
 3942SOL    HW211646   4.526   3.093   4.711
 3943SOL     OW11647   4.409   2.874   4.389
 3943SOL    HW111648   4.478   2.858   4.459
 3943SOL    HW211649   4.336   2.931   4.427
 3944SOL     OW11650   4.059   3.297   4.785
 3944SOL    HW111651   3.981   3.266   4.732
 3944SOL    HW211652   4.117   3.355   4.728
 3945SOL     OW11653   3.955   3.575   4.207
 3945SOL    HW111654   3.989   3.652   4.261
 3945SOL    HW211655   3.999   3.575   4.117
 3946SOL     OW11656   3.954   3.296   4.262
 3946SOL    HW111657   3.928   3.392   4.262
 3946SOL    HW211658   3.883   3.242   4.307
 3947SOL     OW11659   3.964   2.953   4.610
 3947SOL    HW111660   3.978   2.869   4.662
 3947SOL    HW211661   3.909   3.017   4.665
 3948SOL     OW11662   4.344   3.648   5.163
 3948SOL    HW111663   4.252   3.631   5.198
 3948SOL    HW211664   4.372   3.740   5.189
 3949SOL     OW11665   4.330   2.826   3.847
 3949SOL    HW111666   4.337   2.910   3.793
 3949SOL    HW211667   4.376   2.839   3.935
 3950SOL     OW11668   3.846   2.505   4.287
 3950SOL    HW111669   3.801   2.417   4.304
 3950SOL    HW211670   3.845   2.559   4.371
 3951SOL     OW11671   3.751   3.458   3.841
 3951SOL    HW111672   3.732   3.362   3.862
 3951SOL    HW211673   3.718   3.516   3.916
 3952SOL     OW11674   4.337   3.227   4.450
 3952SOL    HW111675   4.288   3.140   4.459
 3952SOL    HW211676   4.314   3.270   4.363
 3953SOL     OW11677   4.533   1.866   4.226
 3953SOL    HW111678   4.573   1.957   4.217
 3953SOL    HW211679   4.433   1.874   4.232
 3954SOL     OW11680   3.921   2.838   4.988
 3954SOL    HW111681   4.010   2.793   4.974
 3954SOL    HW211682   3.848   2.773   4.969
 3955SOL     OW11683   4.322   2.591   3.994
 3955SOL    HW111684   4.346   2.660   3.926
 3955SOL    HW211685   4.244   2.624   4.048
 3956SOL     OW11686   5.005   2.207   4.668
 3956SOL    HW111687   4.919   2.157   4.655
 3956SOL    HW211688   5.067   2.153   4.724
 3957SOL     OW11689   4.715   2.272   4.966
 3957SOL    HW111690   4.638   2.306   5.020
 3957SOL    HW211691   4.681   2.221   4.887
 3958SOL     OW11692   4.765   2.563   4.153
 3958SOL    HW111693   4.791   2.559   4.249
 3958SOL    HW211694   4.680   2.512   4.139
 3959SOL     OW11695   3.800   2.673   4.513
 3959SOL    HW111696   3.899   2.661   4.522
 3959SOL    HW211697   3.776   2.768   4.534
 3960SOL     OW11698   4.589   2.210   3.919
 3960SOL    HW111699   4.648   2.273   3.870
 3960SOL    HW211700   4.608   2.116   3.890
 3961SOL     OW11701   4.274   2.058   4.609
 3961SOL    HW111702   4.269   2.053   4.709
 3961SOL    HW211703   4.276   2.154   4.580
 3962SOL     OW11704   4.732   3.318   4.201
 3962SOL    HW111705   4.686   3.390   4.149
 3962SOL    HW211706   4.728   3.338   4.299
 3963SOL     OW11707   4.075   3.663   4.577
 3963SOL    HW111708   4.125   3.577   4.583
 3963SOL    HW211709   4.140   3.740   4.574
 3964SOL     OW11710   4.045   2.805   3.966
 3964SOL    HW111711   4.127   2.844   3.924
 3964SOL    HW211712   4.018   2.723   3.917
 3965SOL     OW11713   4.835   3.638   3.961
 3965SOL    HW111714   4.775   3.576   4.011
 3965SOL    HW211715   4.866   3.594   3.876
 3966SOL     OW11716   4.188   3.605   4.047
 3966SOL    HW111717   4.221   3.644   4.133
 3966SOL    HW211718   4.264   3.598   3.982
 3967SOL     OW11719   3.973   3.647   4.965
 3967SOL    HW111720   4.030   3.582   5.015
 3967SOL    HW211721   3.957   3.614   4.872
 3968SOL     OW11722   4.664   3.560   4.628
 3968SOL    HW111723   4.744   3.503   4.649
 3968SOL    HW211724   4.615   3.520   4.551
 3969SOL     OW11725   4.106   2.562   4.204
 3969SOL    HW111726   4.151   2.472   4.201
 3969SOL    HW211727   4.012   2.551   4.237
 3970SOL     OW11728   4.338   1.984   3.841
 3970SOL    HW111729   4.436   1.962   3.848
 3970SOL    HW211730   4.307   1.967   3.748
 3971SOL     OW11731   4.527   3.264   4.648
 3971SOL    HW111732   4.617   3.278   4.606
 3971SOL    HW211733   4.456   3.266   4.577
 3972SOL     OW11734   4.646   2.365   4.623
 3972SOL    HW111735   4.621   2.356   4.527
 3972SOL    HW211736   4.694   2.283   4.654
 3973SOL     OW11737   4.263   1.926   4.236
 3973SOL    HW111738   4.182   1.927   4.294
 3973SOL    HW211739   4.266   2.009   4.181
 3974SOL     OW11740   4.021   1.897   3.895
 3974SOL    HW111741   4.070   1.981   3.874
 3974SOL    HW211742   4.083   1.832   3.940
 3975SOL     OW11743   4.659   2.098   4.204
 3975SOL    HW111744   4.611   2.139   4.126
 3975SOL    HW211745   4.758   2.096   4.185
 3976SOL     OW11746   4.951   3.432   4.517
 3976SOL    HW111747   4.972   3.506   4.452
 3976SOL    HW211748   5.019   3.432   4.590
 3977SOL     OW11749   4.183   3.014   4.465
 3977SOL    HW111750   4.112   2.987   4.530
 3977SOL    HW211751   4.157   2.986   4.372
 3978SOL     OW11752   4.995   3.659   4.315
 3978SOL    HW111753   5.039   3.723   4.251
 3978SOL    HW211754   4.945   3.711   4.385
 3979SOL     OW11755   4.756   2.411   3.740
 3979SOL    HW111756   4.715   2.493   3.701
 3979SOL    HW211757   4.820   2.437   3.813
 3980SOL     OW11758   4.285   2.084   4.871
 3980SOL    HW111759   4.323   2.000   4.908
 3980SOL    HW211760   4.197   2.103   4.915
 3981SOL     OW11761   4.590   2.316   4.366
 3981SOL    HW111762   4.558   2.388   4.304
 3981SOL    HW211763   4.614   2.235   4.313
 3982SOL     OW11764   4.741   1.901   4.477
 3982SOL    HW111765   4.669   1.906   4.408
 3982SOL    HW211766   4.717   1.832   4.546
 3983SOL     OW11767   4.212   3.247   3.898
 3983SOL    HW111768   4.125   3.232   3.945
 3983SOL    HW211769   4.195   3.273   3.803
 3984SOL     OW11770   5.388   3.142   4.381
 3984SOL    HW111771   5.487   3.150   4.395
 3984SOL    HW211772   5.343   3.226   4.412
 3985SOL     OW11773   4.251   2.118   4.052
 3985SOL    HW111774   4.278   2.059   3.977
 3985SOL    HW211775   4.251   2.213   4.021
 3986SOL     OW11776   5.316   3.491   5.349
 3986SOL    HW111777   5.343   3.525   5.259
 3986SOL    HW211778   5.395   3.453   5.395
 3987SOL     OW11779   4.835   3.057   4.824
 3987SOL    HW111780   4.795   3.101   4.905
 3987SOL    HW211781   4.794   3.094   4.741
 3988SOL     OW11782   4.429   2.912   4.092
 3988SOL    HW111783   4.415   2.919   4.191
 3988SOL    HW211784   4.513   2.861   4.074
 3989SOL     OW11785   4.134   2.675   4.975
 3989SOL    HW111786   4.220   2.687   5.025
 3989SOL    HW211787   4.092   2.588   5.002
 3990SOL     OW11788   4.091   2.962   4.225
 3990SOL    HW111789   4.084   3.045   4.169
 3990SOL    HW211790   4.095   2.882   4.165
 3991SOL     OW11791   4.290   2.399   4.589
 3991SOL    HW111792   4.302   2.465   4.515
 3991SOL    HW211793   4.336   2.433   4.672
 3992SOL     OW11794   4.976   3.210   4.112
 3992SOL    HW111795   5.026   3.287   4.152
 3992SOL    HW211796   4.881   3.212   4.144
 3993SOL     OW11797   4.078   3.372   5.053
 3993SOL    HW111798   4.057   3.328   4.966
 3993SOL    HW211799   4.175   3.398   5.056
 3994SOL     OW11800   4.297   2.732   4.753
 3994SOL    HW111801   4.341   2.821   4.744
 3994SOL    HW211802   4.234   2.732   4.830
 3995SOL     OW11803   5.084   2.724   4.769
 3995SOL    HW111804   5.009   2.724   4.703
 3995SOL    HW211805   5.121   2.632   4.778
 3996SOL     OW11806   4.933   2.387   3.999
 3996SOL    HW111807   4.946   2.303   4.053
 3996SOL    HW211808   4.904   2.461   4.059
 3997SOL     OW11809   4.031   2.075   4.955
 3997SOL    HW111810   4.008   2.112   5.045
 3997SOL    HW211811   4.001   1.980   4.949
 3998SOL     OW11812   3.761   3.172   5.006
 3998SOL    HW111813   3.814   3.123   5.074
 3998SOL    HW211814   3.783   3.270   5.011
 3999SOL     OW11815   4.456   2.496   4.788
 3999SOL    HW111816   4.515   2.470   4.712
 3999SOL    HW211817   4.428   2.592   4.777
 4000SOL     OW11818   4.031   1.925   4.342
 4000SOL    HW111819   4.020   2.019   4.375
 4000SOL    HW211820   4.026   1.862   4.419
 4001SOL     OW11821   5.346   2.229   4.098
 4001SOL    HW111822   5.348   2.153   4.162
 4001SOL    HW211823   5.298   2.306   4.138
 4002SOL     OW11824   4.747   2.628   4.690
 4002SOL    HW111825   4.762   2.649   4.786
 4002SOL    HW211826   4.717   2.533   4.681
 4003SOL     OW11827   5.027   2.700   3.766
 4003SOL    HW111828   5.061   2.607   3.781
 4003SOL    HW211829   5.045   2.727   3.671
 4004SOL     OW11830   4.792   3.195   4.573
 4004SOL    HW111831   4.799   3.111   4.518
 4004SOL    HW211832   4.854   3.264   4.537
 4005SOL     OW11833   4.043   2.672   4.673
 4005SOL    HW111834   4.136   2.708   4.678
 4005SOL    HW211835   4.037   2.587   4.725
 4006SOL     OW11836   4.063   2.371   4.730
 4006SOL    HW111837   4.011   2.288   4.713
 4006SOL    HW211838   4.140   2.376   4.666
 4007SOL     OW11839   4.884   2.069   5.201
 4007SOL    HW111840   4.884   2.133   5.278
 4007SOL    HW211841   4.912   2.117   5.118
 4008SOL     OW11842   3.732   3.188   3.924
 4008SOL    HW111843   3.639   3.209   3.893
 4008SOL    HW211844   3.742   3.089   3.937
 4009SOL     OW11845   3.812   3.663   4.651
 4009SOL    HW111846   3.770   3.577   4.624
 4009SOL    HW211847   3.906   3.666   4.617
 4010SOL     OW11848   4.228   3.430   4.634
 4010SOL    HW111849   4.294   3.504   4.643
 4010SOL    HW211850   4.272   3.351   4.592
 4011SOL     OW11851   4.726   2.658   4.962
 4011SOL    HW111852   4.767   2.626   5.048
 4011SOL    HW211853   4.630   2.631   4.959
 4012SOL     OW11854   3.764   2.406   4.838
 4012SOL    HW111855   3.849   2.373   4.797
 4012SOL    HW211856   3.777   2.421   4.936
 4013SOL     OW11857   4.539   2.434   4.049
 4013SOL    HW111858   4.546   2.345   4.003
 4013SOL    HW211859   4.445   2.468   4.041
 4014SOL     OW11860   4.395   2.326   4.993
 4014SOL    HW111861   4.361   2.237   4.963
 4014SOL    HW211862   4.421   2.380   4.913
 4015SOL     OW11863   4.654   3.540   5.189
 4015SOL    HW111864   4.630   3.522   5.094
 4015SOL    HW211865   4.684   3.634   5.199
 4016SOL     OW11866   4.197   2.362   3.915
 4016SOL    HW111867   4.258   2.442   3.919
 4016SOL    HW211868   4.102   2.393   3.922
 4017SOL     OW11869   5.071   2.921   4.958
 4017SOL    HW111870   5.095   2.858   4.884
 4017SOL    HW211871   4.981   2.961   4.940
 4018SOL     OW11872   4.976   3.593   4.852
 4018SOL    HW111873   5.060   3.598   4.798
 4018SOL    HW211874   4.953   3.497   4.870
 4019SOL     OW11875   3.807   3.120   4.746
 4019SOL    HW111876   3.802   3.119   4.846
 4019SOL    HW211877   3.724   3.079   4.708
 4020SOL     OW11878   5.112   3.435   4.201
 4020SOL    HW111879   5.179   3.447   4.127
 4020SOL    HW211880   5.072   3.524   4.224
 4021SOL     OW11881   5.004   2.789   4.396
 4021SOL    HW111882   5.064   2.708   4.398
 4021SOL    HW211883   5.044   2.858   4.336
 4022SOL     OW11884   4.396   3.478   3.878
 4022SOL    HW111885   4.405   3.488   3.779
 4022SOL    HW211886   4.356   3.389   3.899
 4023SOL     OW11887   3.987   2.188   4.444
 4023SOL    HW111888   3.908   2.239   4.410
 4023SOL    HW211889   3.978   2.173   4.542
 4024SOL     OW11890   4.918   3.474   3.755
 4024SOL    HW111891   4.924   3.381   3.792
 4024SOL    HW211892   4.859   3.474   3.675
 4025SOL     OW11893   4.546   2.864   5.096
 4025SOL    HW111894   4.586   2.863   5.004
 4025SOL    HW211895   4.556   2.956   5.136
 4026SOL     OW11896   4.640   2.772   4.015
 4026SOL    HW111897   4.703   2.810   3.947
 4026SOL    HW211898   4.680   2.689   4.054
 4027SOL     OW11899   4.763   2.960   4.420
 4027SOL    HW111900   4.693   2.913   4.474
 4027SOL    HW211901   4.822   2.892   4.377
 4028SOL     OW11902   4.738   2.098   4.695
 4028SOL    HW111903   4.730   2.062   4.602
 4028SOL    HW211904   4.736   2.022   4.760
 4029SOL     OW11905   4.314   3.349   4.215
 4029SOL    HW111906   4.356   3.291   4.145
 4029SOL    HW211907   4.270   3.428   4.171
 4030SOL     OW11908   3.979   3.210   4.014
 4030SOL    HW111909   3.883   3.211   3.987
 4030SOL    HW211910   3.991   3.263   4.098
 4031SOL     OW11911   3.799   2.207   3.757
 4031SOL    HW111912   3.707   2.179   3.728
 4031SOL    HW211913   3.830   2.284   3.701
 4032SOL     OW11914   3.796   2.028   4.042
 4032SOL    HW111915   3.779   2.111   3.988
 4032SOL    HW211916   3.886   1.991   4.020
 4033SOL     OW11917   4.949   2.187   4.173
 4033SOL    HW111918   5.014   2.113   4.162
 4033SOL    HW211919   4.969   2.237   4.257
 4034SOL     OW11920   4.318   2.607   4.376
 4034SOL    HW111921   4.368   2.692   4.357
 4034SOL    HW211922   4.230   2.609   4.328
 4035SOL     OW11923   4.583   3.236   3.740
 4035SOL    HW111924   4.537   3.251   3.828
 4035SOL    HW211925   4.627   3.321   3.710
 4036SOL     OW11926   4.385   3.652   4.677
 4036SOL    HW111927   4.339   3.740   4.664
 4036SOL    HW211928   4.484   3.664   4.670
 4037SOL     OW11929   4.583   2.818   4.585
 4037SOL    HW111930   4.637   2.749   4.633
 4037SOL    HW211931   4.551   2.887   4.651
 4038SOL     OW11932   4.807   2.846   3.811
 4038SOL    HW111933   4.784   2.899   3.729
 4038SOL    HW211934   4.888   2.790   3.792
 4039SOL     OW11935   3.803   3.102   4.377
 4039SOL    HW111936   3.802   3.055   4.465
 4039SOL    HW211937   3.885   3.074   4.326
 4040SOL     OW11938   4.152   2.286   4.244
 4040SOL    HW111939   4.182   2.214   4.182
 4040SOL    HW211940   4.113   2.246   4.327
 4041SOL     OW11941   4.536   3.448   4.411
 4041SOL    HW111942   4.568   3.458   4.317
 4041SOL    HW211943   4.457   3.386   4.413
 4042SOL     OW11944   4.725   1.896   4.878
 4042SOL    HW111945   4.662   1.824   4.847
 4042SOL    HW211946   4.818   1.860   4.878
 4043SOL     OW11947   4.494   3.192   4.025
 4043SOL    HW111948   4.448   3.105   4.042
 4043SOL    HW211949   4.585   3.189   4.066
 4044SOL     OW11950   5.076   1.914   3.892
 4044SOL    HW111951   5.111   1.873   3.808
 4044SOL    HW211952   4.986   1.876   3.912
 4045SOL     OW11953   3.763   2.939   4.024
 4045SOL    HW111954   3.862   2.928   4.015
 4045SOL    HW211955   3.723   2.853   4.056
 4046SOL     OW11956   4.599   3.508   4.061
 4046SOL    HW111957   4.522   3.473   4.007
 4046SOL    HW211958   4.567   3.579   4.123
 4047SOL     OW11959   3.954   4.352   0.113
 4047SOL    HW111960   3.861   4.350   0.150
 4047SOL    HW211961   3.955   4.313   0.021
 4048SOL     OW11962   3.949   3.999   0.996
 4048SOL    HW111963   3.984   3.982   1.088
 4048SOL    HW211964   3.861   3.954   0.984
 4049SOL     OW11965   3.743   4.092   0.647
 4049SOL    HW111966   3.661   4.135   0.686
 4049SOL    HW211967   3.715   4.019   0.584
 4050SOL     OW11968   4.293   4.999   1.165
 4050SOL    HW111969   4.200   4.992   1.128
 4050SOL    HW211970   4.304   5.088   1.209
 4051SOL     OW11971   4.859   4.427   0.717
 4051SOL    HW111972   4.916   4.505   0.692
 4051SOL    HW211973   4.799   4.453   0.793
 4052SOL     OW11974   4.492   4.868   1.023
 4052SOL    HW111975   4.414   4.885   1.083
 4052SOL    HW211976   4.526   4.955   0.987
 4053SOL     OW11977   4.574   4.522   1.823
 4053SOL    HW111978   4.570   4.598   1.888
 4053SOL    HW211979   4.596   4.558   1.732
 4054SOL     OW11980   4.409   4.736   0.665
 4054SOL    HW111981   4.478   4.720   0.735
 4054SOL    HW211982   4.336   4.793   0.703
 4055SOL     OW11983   4.410   4.885   1.803
 4055SOL    HW111984   4.470   4.964   1.817
 4055SOL    HW211985   4.324   4.916   1.762
 4056SOL     OW11986   4.059   5.159   1.061
 4056SOL    HW111987   3.981   5.128   1.008
 4056SOL    HW211988   4.117   5.217   1.004
 4057SOL     OW11989   4.162   4.116   1.499
 4057SOL    HW111990   4.244   4.060   1.508
 4057SOL    HW211991   4.081   4.058   1.503
 4058SOL     OW11992   3.964   4.815   0.886
 4058SOL    HW111993   3.978   4.731   0.938
 4058SOL    HW211994   3.909   4.879   0.941
 4059SOL     OW11995   4.330   4.688   0.123
 4059SOL    HW111996   4.337   4.772   0.069
 4059SOL    HW211997   4.376   4.701   0.211
 4060SOL     OW11998   3.846   4.367   0.563
 4060SOL    HW111999   3.801   4.279   0.580
 4060SOL    HW212000   3.845   4.421   0.647
 4061SOL     OW12001   3.837   4.461   1.597
 4061SOL    HW112002   3.925   4.448   1.642
 4061SOL    HW212003   3.824   4.558   1.575
 4062SOL     OW12004   5.017   4.952   1.423
 4062SOL    HW112005   5.054   4.879   1.365
 4062SOL    HW212006   5.069   4.957   1.508
 4063SOL     OW12007   4.533   3.728   0.502
 4063SOL    HW112008   4.573   3.819   0.493
 4063SOL    HW212009   4.433   3.736   0.508
 4064SOL     OW12010   3.921   4.700   1.264
 4064SOL    HW112011   4.010   4.655   1.250
 4064SOL    HW212012   3.848   4.635   1.245
 4065SOL     OW12013   4.041   3.975   1.801
 4065SOL    HW112014   4.112   4.046   1.807
 4065SOL    HW212015   3.953   4.014   1.829
 4066SOL     OW12016   4.322   4.453   0.270
 4066SOL    HW112017   4.346   4.522   0.202
 4066SOL    HW212018   4.244   4.486   0.324
 4067SOL     OW12019   5.005   4.069   0.944
 4067SOL    HW112020   4.919   4.019   0.931
 4067SOL    HW212021   5.067   4.015   1.000
 4068SOL     OW12022   4.531   4.329   1.465
 4068SOL    HW112023   4.484   4.326   1.554
 4068SOL    HW212024   4.480   4.274   1.399
 4069SOL     OW12025   4.697   4.614   1.572
 4069SOL    HW112026   4.743   4.530   1.543
 4069SOL    HW212027   4.641   4.648   1.497
 4070SOL     OW12028   4.715   4.134   1.242
 4070SOL    HW112029   4.638   4.168   1.296
 4070SOL    HW212030   4.681   4.083   1.163
 4071SOL     OW12031   4.765   4.425   0.429
 4071SOL    HW112032   4.791   4.421   0.525
 4071SOL    HW212033   4.680   4.374   0.415
 4072SOL     OW12034   3.800   4.535   0.789
 4072SOL    HW112035   3.899   4.523   0.798
 4072SOL    HW212036   3.776   4.630   0.810
 4073SOL     OW12037   4.589   4.072   0.195
 4073SOL    HW112038   4.648   4.135   0.146
 4073SOL    HW212039   4.608   3.978   0.166
 4074SOL     OW12040   4.274   3.920   0.885
 4074SOL    HW112041   4.269   3.915   0.985
 4074SOL    HW212042   4.276   4.016   0.856
 4075SOL     OW12043   4.045   4.667   0.242
 4075SOL    HW112044   4.127   4.706   0.200
 4075SOL    HW212045   4.018   4.585   0.193
 4076SOL     OW12046   3.926   4.009   1.498
 4076SOL    HW112047   3.846   4.069   1.485
 4076SOL    HW212048   3.916   3.960   1.584
 4077SOL     OW12049   4.106   4.424   0.480
 4077SOL    HW112050   4.151   4.334   0.477
 4077SOL    HW212051   4.012   4.413   0.513
 4078SOL     OW12052   4.505   3.988   1.749
 4078SOL    HW112053   4.572   3.927   1.792
 4078SOL    HW212054   4.432   4.007   1.814
 4079SOL     OW12055   4.527   5.126   0.924
 4079SOL    HW112056   4.617   5.140   0.882
 4079SOL    HW212057   4.456   5.128   0.853
 4080SOL     OW12058   4.646   4.227   0.899
 4080SOL    HW112059   4.621   4.218   0.803
 4080SOL    HW212060   4.694   4.145   0.930
 4081SOL     OW12061   4.263   3.788   0.512
 4081SOL    HW112062   4.182   3.789   0.570
 4081SOL    HW212063   4.266   3.871   0.457
 4082SOL     OW12064   4.021   3.759   0.171
 4082SOL    HW112065   4.070   3.843   0.150
 4082SOL    HW212066   4.083   3.694   0.216
 4083SOL     OW12067   4.659   3.960   0.480
 4083SOL    HW112068   4.611   4.001   0.402
 4083SOL    HW212069   4.758   3.958   0.461
 4084SOL     OW12070   4.800   4.407   1.464
 4084SOL    HW112071   4.720   4.346   1.467
 4084SOL    HW212072   4.881   4.354   1.440
 4085SOL     OW12073   4.951   5.294   0.793
 4085SOL    HW112074   4.972   5.368   0.728
 4085SOL    HW212075   5.019   5.294   0.866
 4086SOL     OW12076   4.183   4.876   0.741
 4086SOL    HW112077   4.112   4.849   0.806
 4086SOL    HW212078   4.157   4.848   0.648
 4087SOL     OW12079   4.756   4.273   0.016
 4087SOL    HW112080   4.715   4.355  -0.023
 4087SOL    HW212081   4.820   4.299   0.089
 4088SOL     OW12082   3.802   4.280   1.386
 4088SOL    HW112083   3.894   4.279   1.345
 4088SOL    HW212084   3.796   4.354   1.453
 4089SOL     OW12085   4.285   3.946   1.147
 4089SOL    HW112086   4.323   3.862   1.184
 4089SOL    HW212087   4.197   3.965   1.191
 4090SOL     OW12088   4.590   4.178   0.642
 4090SOL    HW112089   4.558   4.250   0.580
 4090SOL    HW212090   4.614   4.097   0.589
 4091SOL     OW12091   4.741   3.763   0.753
 4091SOL    HW112092   4.669   3.768   0.684
 4091SOL    HW212093   4.717   3.694   0.822
 4092SOL     OW12094   4.251   3.980   0.328
 4092SOL    HW112095   4.278   3.921   0.253
 4092SOL    HW212096   4.251   4.075   0.297
 4093SOL     OW12097   4.639   3.813   1.402
 4093SOL    HW112098   4.664   3.793   1.307
 4093SOL    HW212099   4.711   3.869   1.444
 4094SOL     OW12100   4.704   4.840   1.719
 4094SOL    HW112101   4.605   4.846   1.729
 4094SOL    HW212102   4.727   4.760   1.663
 4095SOL     OW12103   4.429   4.774   0.368
 4095SOL    HW112104   4.415   4.781   0.467
 4095SOL    HW212105   4.513   4.723   0.350
 4096SOL     OW12106   4.134   4.537   1.251
 4096SOL    HW112107   4.220   4.549   1.301
 4096SOL    HW212108   4.092   4.450   1.278
 4097SOL     OW12109   4.998   4.110   1.262
 4097SOL    HW112110   5.019   4.184   1.326
 4097SOL    HW212111   4.909   4.127   1.219
 4098SOL     OW12112   4.091   4.824   0.501
 4098SOL    HW112113   4.084   4.907   0.445
 4098SOL    HW212114   4.095   4.744   0.441
 4099SOL     OW12115   4.290   4.261   0.865
 4099SOL    HW112116   4.302   4.327   0.791
 4099SOL    HW212117   4.336   4.295   0.948
 4100SOL     OW12118   4.976   5.072   0.388
 4100SOL    HW112119   5.026   5.149   0.428
 4100SOL    HW212120   4.881   5.074   0.420
 4101SOL     OW12121   4.126   4.475   1.598
 4101SOL    HW112122   4.194   4.530   1.551
 4101SOL    HW212123   4.166   4.387   1.625
 4102SOL     OW12124   4.737   3.829   1.770
 4102SOL    HW112125   4.743   3.914   1.718
 4102SOL    HW212126   4.769   3.753   1.713
 4103SOL     OW12127   4.228   3.774   1.740
 4103SOL    HW112128   4.186   3.717   1.670
 4103SOL    HW212129   4.162   3.843   1.772
 4104SOL     OW12130   4.297   4.594   1.029
 4104SOL    HW112131   4.341   4.683   1.020
 4104SOL    HW212132   4.234   4.594   1.106
 4105SOL     OW12133   5.084   4.586   1.045
 4105SOL    HW112134   5.009   4.586   0.979
 4105SOL    HW212135   5.121   4.494   1.054
 4106SOL     OW12136   4.933   4.249   0.275
 4106SOL    HW112137   4.946   4.165   0.329
 4106SOL    HW212138   4.904   4.323   0.335
 4107SOL     OW12139   4.031   3.937   1.231
 4107SOL    HW112140   4.008   3.974   1.321
 4107SOL    HW212141   4.001   3.842   1.225
 4108SOL     OW12142   4.456   4.358   1.064
 4108SOL    HW112143   4.515   4.332   0.988
 4108SOL    HW212144   4.428   4.454   1.053
 4109SOL     OW12145   4.031   3.787   0.618
 4109SOL    HW112146   4.020   3.881   0.651
 4109SOL    HW212147   4.026   3.724   0.695
 4110SOL     OW12148   5.346   4.091   0.374
 4110SOL    HW112149   5.348   4.015   0.438
 4110SOL    HW212150   5.298   4.168   0.414
 4111SOL     OW12151   4.747   4.490   0.966
 4111SOL    HW112152   4.762   4.511   1.062
 4111SOL    HW212153   4.717   4.395   0.957
 4112SOL     OW12154   4.074   4.622   1.804
 4112SOL    HW112155   4.150   4.666   1.852
 4112SOL    HW212156   4.109   4.575   1.722
 4113SOL     OW12157   5.027   4.562   0.042
 4113SOL    HW112158   5.061   4.469   0.057
 4113SOL    HW212159   5.045   4.589  -0.053
 4114SOL     OW12160   4.043   4.534   0.949
 4114SOL    HW112161   4.136   4.570   0.954
 4114SOL    HW212162   4.037   4.449   1.001
 4115SOL     OW12163   4.063   4.233   1.006
 4115SOL    HW112164   4.011   4.150   0.989
 4115SOL    HW212165   4.140   4.238   0.942
 4116SOL     OW12166   4.862   4.104   1.678
 4116SOL    HW112167   4.817   4.167   1.742
 4116SOL    HW212168   4.955   4.135   1.661
 4117SOL     OW12169   4.884   3.931   1.477
 4117SOL    HW112170   4.884   3.995   1.554
 4117SOL    HW212171   4.912   3.979   1.394
 4118SOL     OW12172   4.726   4.520   1.238
 4118SOL    HW112173   4.767   4.488   1.324
 4118SOL    HW212174   4.630   4.493   1.235
 4119SOL     OW12175   3.764   4.268   1.114
 4119SOL    HW112176   3.849   4.235   1.073
 4119SOL    HW212177   3.777   4.283   1.212
 4120SOL     OW12178   3.913   4.244   1.722
 4120SOL    HW112179   3.972   4.204   1.652
 4120SOL    HW212180   3.855   4.315   1.681
 4121SOL     OW12181   4.539   4.296   0.325
 4121SOL    HW112182   4.546   4.207   0.279
 4121SOL    HW212183   4.445   4.330   0.317
 4122SOL     OW12184   4.395   4.188   1.269
 4122SOL    HW112185   4.361   4.099   1.239
 4122SOL    HW212186   4.421   4.242   1.189
 4123SOL     OW12187   4.197   4.224   0.191
 4123SOL    HW112188   4.258   4.304   0.195
 4123SOL    HW212189   4.102   4.255   0.198
 4124SOL     OW12190   3.883   4.861   1.466
 4124SOL    HW112191   3.905   4.800   1.542
 4124SOL    HW212192   3.893   4.812   1.380
 4125SOL     OW12193   5.071   4.783   1.234
 4125SOL    HW112194   5.095   4.720   1.160
 4125SOL    HW212195   4.981   4.823   1.216
 4126SOL     OW12196   3.807   4.982   1.022
 4126SOL    HW112197   3.802   4.981   1.122
 4126SOL    HW212198   3.724   4.941   0.984
 4127SOL     OW12199   4.627   3.810   0.133
 4127SOL    HW112200   4.678   3.811   0.047
 4127SOL    HW212201   4.683   3.768   0.204
 4128SOL     OW12202   5.004   4.651   0.672
 4128SOL    HW112203   5.064   4.570   0.674
 4128SOL    HW212204   5.044   4.720   0.612
 4129SOL     OW12205   4.554   4.997   1.422
 4129SOL    HW112206   4.549   5.030   1.517
 4129SOL    HW212207   4.468   5.016   1.376
 4130SOL     OW12208   3.987   4.050   0.720
 4130SOL    HW112209   3.908   4.101   0.686
 4130SOL    HW212210   3.978   4.035   0.818
 4131SOL     OW12211   4.546   4.726   1.372
 4131SOL    HW112212   4.586   4.725   1.280
 4131SOL    HW212213   4.556   4.818   1.412
 4132SOL     OW12214   4.640   4.634   0.291
 4132SOL    HW112215   4.703   4.672   0.223
 4132SOL    HW212216   4.680   4.551   0.330
 4133SOL     OW12217   4.096   5.012   1.490
 4133SOL    HW112218   4.083   5.105   1.456
 4133SOL    HW212219   4.012   4.960   1.477
 4134SOL     OW12220   4.763   4.822   0.696
 4134SOL    HW112221   4.693   4.775   0.750
 4134SOL    HW212222   4.822   4.754   0.653
 4135SOL     OW12223   4.738   3.960   0.971
 4135SOL    HW112224   4.730   3.924   0.878
 4135SOL    HW212225   4.736   3.884   1.036
 4136SOL     OW12226   3.829   4.737   1.726
 4136SOL    HW112227   3.752   4.704   1.780
 4136SOL    HW212228   3.914   4.707   1.768
 4137SOL     OW12229   4.396   3.927   1.489
 4137SOL    HW112230   4.486   3.911   1.449
 4137SOL    HW212231   4.404   3.932   1.588
 4138SOL     OW12232   5.164   4.580   1.398
 4138SOL    HW112233   5.107   4.632   1.335
 4138SOL    HW212234   5.260   4.592   1.374
 4139SOL     OW12235   3.796   3.890   0.318
 4139SOL    HW112236   3.779   3.973   0.264
 4139SOL    HW212237   3.886   3.853   0.296
 4140SOL     OW12238   4.337   4.566   1.431
 4140SOL    HW112239   4.393   4.647   1.414
 4140SOL    HW212240   4.396   4.486   1.434
 4141SOL     OW12241   4.440   4.289   1.708
 4141SOL    HW112242   4.459   4.354   1.782
 4141SOL    HW212243   4.500   4.209   1.717
 4142SOL     OW12244   5.174   4.944   1.633
 4142SOL    HW112245   5.165   4.934   1.732
 4142SOL    HW212246   5.270   4.937   1.607
 4143SOL     OW12247   4.949   4.049   0.449
 4143SOL    HW112248   5.014   3.975   0.438
 4143SOL    HW212249   4.969   4.099   0.533
 4144SOL     OW12250   4.318   4.469   0.652
 4144SOL    HW112251   4.368   4.554   0.633
 4144SOL    HW212252   4.230   4.471   0.604
 4145SOL     OW12253   4.583   4.680   0.861
 4145SOL    HW112254   4.637   4.611   0.909
 4145SOL    HW212255   4.551   4.749   0.927
 4146SOL     OW12256   4.807   4.708   0.087
 4146SOL    HW112257   4.784   4.761   0.005
 4146SOL    HW212258   4.888   4.652   0.068
 4147SOL     OW12259   3.803   4.964   0.653
 4147SOL    HW112260   3.802   4.917   0.741
 4147SOL    HW212261   3.885   4.936   0.602
 4148SOL     OW12262   4.152   4.148   0.520
 4148SOL    HW112263   4.182   4.076   0.458
 4148SOL    HW212264   4.113   4.108   0.603
 4149SOL     OW12265   4.041   4.271   1.280
 4149SOL    HW112266   4.079   4.212   1.352
 4149SOL    HW212267   4.081   4.245   1.192
 4150SOL     OW12268   4.725   3.758   1.154
 4150SOL    HW112269   4.662   3.686   1.123
 4150SOL    HW212270   4.818   3.722   1.154
 4151SOL     OW12271   4.494   5.054   0.301
 4151SOL    HW112272   4.448   4.967   0.318
 4151SOL    HW212273   4.585   5.051   0.342
 4152SOL     OW12274   3.763   4.801   0.300
 4152SOL    HW112275   3.862   4.790   0.291
 4152SOL    HW212276   3.723   4.715   0.332
 4153SOL     OW12277   3.954   4.352   1.975
 4153SOL    HW112278   3.861   4.350   2.012
 4153SOL    HW212279   3.955   4.313   1.883
 4154SOL     OW12280   3.949   3.999   2.858
 4154SOL    HW112281   3.984   3.982   2.950
 4154SOL    HW212282   3.861   3.954   2.846
 4155SOL     OW12283   3.743   4.092   2.509
 4155SOL    HW112284   3.661   4.135   2.548
 4155SOL    HW212285   3.715   4.019   2.446
 4156SOL     OW12286   4.293   4.999   3.027
 4156SOL    HW112287   4.200   4.992   2.990
 4156SOL    HW212288   4.304   5.088   3.071
 4157SOL     OW12289   4.859   4.427   2.579
 4157SOL    HW112290   4.916   4.505   2.554
 4157SOL    HW212291   4.799   4.453   2.655
 4158SOL     OW12292   4.492   4.868   2.885
 4158SOL    HW112293   4.414   4.885   2.945
 4158SOL    HW212294   4.526   4.955   2.849
 4159SOL     OW12295   4.574   4.522   3.685
 4159SOL    HW112296   4.570   4.598   3.750
 4159SOL    HW212297   4.596   4.558   3.594
 4160SOL     OW12298   4.409   4.736   2.527
 4160SOL    HW112299   4.478   4.720   2.597
 4160SOL    HW212300   4.336   4.793   2.565
 4161SOL     OW12301   4.410   4.885   3.665
 4161SOL    HW112302   4.470   4.964   3.679
 4161SOL    HW212303   4.324   4.916   3.624
 4162SOL     OW12304   4.059   5.159   2.923
 4162SOL    HW112305   3.981   5.128   2.870
 4162SOL    HW212306   4.117   5.217   2.866
 4163SOL     OW12307   4.162   4.116   3.361
 4163SOL    HW112308   4.244   4.060   3.370
 4163SOL    HW212309   4.081   4.058   3.365
 4164SOL     OW12310   3.964   4.815   2.748
 4164SOL    HW112311   3.978   4.731   2.800
 4164SOL    HW212312   3.909   4.879   2.803
 4165SOL     OW12313   4.330   4.688   1.985
 4165SOL    HW112314   4.337   4.772   1.931
 4165SOL    HW212315   4.376   4.701   2.073
 4166SOL     OW12316   3.846   4.367   2.425
 4166SOL    HW112317   3.801   4.279   2.442
 4166SOL    HW212318   3.845   4.421   2.509
 4167SOL     OW12319   3.837   4.461   3.459
 4167SOL    HW112320   3.925   4.448   3.504
 4167SOL    HW212321   3.824   4.558   3.437
 4168SOL     OW12322   5.017   4.952   3.285
 4168SOL    HW112323   5.054   4.879   3.227
 4168SOL    HW212324   5.069   4.957   3.370
 4169SOL     OW12325   4.533   3.728   2.364
 4169SOL    HW112326   4.573   3.819   2.355
 4169SOL    HW212327   4.433   3.736   2.370
 4170SOL     OW12328   3.921   4.700   3.126
 4170SOL    HW112329   4.010   4.655   3.112
 4170SOL    HW212330   3.848   4.635   3.107
 4171SOL     OW12331   4.041   3.975   3.663
 4171SOL    HW112332   4.112   4.046   3.669
 4171SOL    HW212333   3.953   4.014   3.691
 4172SOL     OW12334   4.322   4.453   2.132
 4172SOL    HW112335   4.346   4.522   2.064
 4172SOL    HW212336   4.244   4.486   2.186
 4173SOL     OW12337   5.005   4.069   2.806
 4173SOL    HW112338   4.919   4.019   2.793
 4173SOL    HW212339   5.067   4.015   2.862
 4174SOL     OW12340   4.531   4.329   3.327
 4174SOL    HW112341   4.484   4.326   3.416
 4174SOL    HW212342   4.480   4.274   3.261
 4175SOL     OW12343   4.697   4.614   3.434
 4175SOL    HW112344   4.743   4.530   3.405
 4175SOL    HW212345   4.641   4.648   3.359
 4176SOL     OW12346   4.715   4.134   3.104
 4176SOL    HW112347   4.638   4.168   3.158
 4176SOL    HW212348   4.681   4.083   3.025
 4177SOL     OW12349   4.765   4.425   2.291
 4177SOL    HW112350   4.791   4.421   2.387
 4177SOL    HW212351   4.680   4.374   2.277
 4178SOL     OW12352   3.800   4.535   2.651
 4178SOL    HW112353   3.899   4.523   2.660
 4178SOL    HW212354   3.776   4.630   2.672
 4179SOL     OW12355   4.589   4.072   2.057
 4179SOL    HW112356   4.648   4.135   2.008
 4179SOL    HW212357   4.608   3.978   2.028
 4180SOL     OW12358   4.274   3.920   2.747
 4180SOL    HW112359   4.269   3.915   2.847
 4180SOL    HW212360   4.276   4.016   2.718
 4181SOL     OW12361   4.045   4.667   2.104
 4181SOL    HW112362   4.127   4.706   2.062
 4181SOL    HW212363   4.018   4.585   2.055
 4182SOL     OW12364   3.926   4.009   3.360
 4182SOL    HW112365   3.846   4.069   3.347
 4182SOL    HW212366   3.916   3.960   3.446
 4183SOL     OW12367   4.106   4.424   2.342
 4183SOL    HW112368   4.151   4.334   2.339
 4183SOL    HW212369   4.012   4.413   2.375
 4184SOL     OW12370   4.338   3.846   1.979
 4184SOL    HW112371   4.436   3.824   1.986
 4184SOL    HW212372   4.307   3.829   1.886
 4185SOL     OW12373   4.505   3.988   3.611
 4185SOL    HW112374   4.572   3.927   3.654
 4185SOL    HW212375   4.432   4.007   3.676
 4186SOL     OW12376   4.527   5.126   2.786
 4186SOL    HW112377   4.617   5.140   2.744
 4186SOL    HW212378   4.456   5.128   2.715
 4187SOL     OW12379   4.646   4.227   2.761
 4187SOL    HW112380   4.621   4.218   2.665
 4187SOL    HW212381   4.694   4.145   2.792
 4188SOL     OW12382   4.263   3.788   2.374
 4188SOL    HW112383   4.182   3.789   2.432
 4188SOL    HW212384   4.266   3.871   2.319
 4189SOL     OW12385   5.158   4.912   1.903
 4189SOL    HW112386   5.190   4.836   1.960
 4189SOL    HW212387   5.066   4.939   1.933
 4190SOL     OW12388   4.021   3.759   2.033
 4190SOL    HW112389   4.070   3.843   2.012
 4190SOL    HW212390   4.083   3.694   2.078
 4191SOL     OW12391   4.659   3.960   2.342
 4191SOL    HW112392   4.611   4.001   2.264
 4191SOL    HW212393   4.758   3.958   2.323
 4192SOL     OW12394   4.800   4.407   3.326
 4192SOL    HW112395   4.720   4.346   3.329
 4192SOL    HW212396   4.881   4.354   3.302
 4193SOL     OW12397   4.951   5.294   2.655
 4193SOL    HW112398   4.972   5.368   2.590
 4193SOL    HW212399   5.019   5.294   2.728
 4194SOL     OW12400   4.183   4.876   2.603
 4194SOL    HW112401   4.112   4.849   2.668
 4194SOL    HW212402   4.157   4.848   2.510
 4195SOL     OW12403   4.756   4.273   1.878
 4195SOL    HW112404   4.715   4.355   1.839
 4195SOL    HW212405   4.820   4.299   1.951
 4196SOL     OW12406   3.802   4.280   3.248
 4196SOL    HW112407   3.894   4.279   3.207
 4196SOL    HW212408   3.796   4.354   3.315
 4197SOL     OW12409   4.285   3.946   3.009
 4197SOL    HW112410   4.323   3.862   3.046
 4197SOL    HW212411   4.197   3.965   3.053
 4198SOL     OW12412   4.590   4.178   2.504
 4198SOL    HW112413   4.558   4.250   2.442
 4198SOL    HW212414   4.614   4.097   2.451
 4199SOL     OW12415   4.741   3.763   2.615
 4199SOL    HW112416   4.669   3.768   2.546
 4199SOL    HW212417   4.717   3.694   2.684
 4200SOL     OW12418   4.251   3.980   2.190
 4200SOL    HW112419   4.278   3.921   2.115
 4200SOL    HW212420   4.251   4.075   2.159
 4201SOL     OW12421   4.639   3.813   3.264
 4201SOL    HW112422   4.664   3.793   3.169
 4201SOL    HW212423   4.711   3.869   3.306
 4202SOL     OW12424   4.704   4.840   3.581
 4202SOL    HW112425   4.605   4.846   3.591
 4202SOL    HW212426   4.727   4.760   3.525
 4203SOL     OW12427   4.429   4.774   2.230
 4203SOL    HW112428   4.415   4.781   2.329
 4203SOL    HW212429   4.513   4.723   2.212
 4204SOL     OW12430   4.134   4.537   3.113
 4204SOL    HW112431   4.220   4.549   3.163
 4204SOL    HW212432   4.092   4.450   3.140
 4205SOL     OW12433   4.998   4.110   3.124
 4205SOL    HW112434   5.019   4.184   3.188
 4205SOL    HW212435   4.909   4.127   3.081
 4206SOL     OW12436   4.091   4.824   2.363
 4206SOL    HW112437   4.084   4.907   2.307
 4206SOL    HW212438   4.095   4.744   2.303
 4207SOL     OW12439   4.290   4.261   2.727
 4207SOL    HW112440   4.302   4.327   2.653
 4207SOL    HW212441   4.336   4.295   2.810
 4208SOL     OW12442   4.976   5.072   2.250
 4208SOL    HW112443   5.026   5.149   2.290
 4208SOL    HW212444   4.881   5.074   2.282
 4209SOL     OW12445   4.126   4.475   3.460
 4209SOL    HW112446   4.194   4.530   3.413
 4209SOL    HW212447   4.166   4.387   3.487
 4210SOL     OW12448   4.737   3.829   3.632
 4210SOL    HW112449   4.743   3.914   3.580
 4210SOL    HW212450   4.769   3.753   3.575
 4211SOL     OW12451   4.228   3.774   3.602
 4211SOL    HW112452   4.186   3.717   3.532
 4211SOL    HW212453   4.162   3.843   3.634
 4212SOL     OW12454   4.297   4.594   2.891
 4212SOL    HW112455   4.341   4.683   2.882
 4212SOL    HW212456   4.234   4.594   2.968
 4213SOL     OW12457   5.084   4.586   2.907
 4213SOL    HW112458   5.009   4.586   2.841
 4213SOL    HW212459   5.121   4.494   2.916
 4214SOL     OW12460   4.933   4.249   2.137
 4214SOL    HW112461   4.946   4.165   2.191
 4214SOL    HW212462   4.904   4.323   2.197
 4215SOL     OW12463   4.031   3.937   3.093
 4215SOL    HW112464   4.008   3.974   3.183
 4215SOL    HW212465   4.001   3.842   3.087
 4216SOL     OW12466   4.456   4.358   2.926
 4216SOL    HW112467   4.515   4.332   2.850
 4216SOL    HW212468   4.428   4.454   2.915
 4217SOL     OW12469   4.031   3.787   2.480
 4217SOL    HW112470   4.020   3.881   2.513
 4217SOL    HW212471   4.026   3.724   2.557
 4218SOL     OW12472   5.346   4.091   2.236
 4218SOL    HW112473   5.348   4.015   2.300
 4218SOL    HW212474   5.298   4.168   2.276
 4219SOL     OW12475   4.747   4.490   2.828
 4219SOL    HW112476   4.762   4.511   2.924
 4219SOL    HW212477   4.717   4.395   2.819
 4220SOL     OW12478   4.074   4.622   3.666
 4220SOL    HW112479   4.150   4.666   3.714
 4220SOL    HW212480   4.109   4.575   3.584
 4221SOL     OW12481   5.027   4.562   1.904
 4221SOL    HW112482   5.061   4.469   1.919
 4221SOL    HW212483   5.045   4.589   1.809
 4222SOL     OW12484   4.043   4.534   2.811
 4222SOL    HW112485   4.136   4.570   2.816
 4222SOL    HW212486   4.037   4.449   2.863
 4223SOL     OW12487   4.063   4.233   2.868
 4223SOL    HW112488   4.011   4.150   2.851
 4223SOL    HW212489   4.140   4.238   2.804
 4224SOL     OW12490   4.862   4.104   3.540
 4224SOL    HW112491   4.817   4.167   3.604
 4224SOL    HW212492   4.955   4.135   3.523
 4225SOL     OW12493   4.884   3.931   3.339
 4225SOL    HW112494   4.884   3.995   3.416
 4225SOL    HW212495   4.912   3.979   3.256
 4226SOL     OW12496   3.732   5.050   2.062
 4226SOL    HW112497   3.639   5.071   2.031
 4226SOL    HW212498   3.742   4.951   2.075
 4227SOL     OW12499   4.726   4.520   3.100
 4227SOL    HW112500   4.767   4.488   3.186
 4227SOL    HW212501   4.630   4.493   3.097
 4228SOL     OW12502   3.764   4.268   2.976
 4228SOL    HW112503   3.849   4.235   2.935
 4228SOL    HW212504   3.777   4.283   3.074
 4229SOL     OW12505   3.913   4.244   3.584
 4229SOL    HW112506   3.972   4.204   3.514
 4229SOL    HW212507   3.855   4.315   3.543
 4230SOL     OW12508   4.539   4.296   2.187
 4230SOL    HW112509   4.546   4.207   2.141
 4230SOL    HW212510   4.445   4.330   2.179
 4231SOL     OW12511   4.395   4.188   3.131
 4231SOL    HW112512   4.361   4.099   3.101
 4231SOL    HW212513   4.421   4.242   3.051
 4232SOL     OW12514   4.197   4.224   2.053
 4232SOL    HW112515   4.258   4.304   2.057
 4232SOL    HW212516   4.102   4.255   2.060
 4233SOL     OW12517   3.883   4.861   3.328
 4233SOL    HW112518   3.905   4.800   3.404
 4233SOL    HW212519   3.893   4.812   3.242
 4234SOL     OW12520   5.071   4.783   3.096
 4234SOL    HW112521   5.095   4.720   3.022
 4234SOL    HW212522   4.981   4.823   3.078
 4235SOL     OW12523   3.807   4.982   2.884
 4235SOL    HW112524   3.802   4.981   2.984
 4235SOL    HW212525   3.724   4.941   2.846
 4236SOL     OW12526   5.004   4.651   2.534
 4236SOL    HW112527   5.064   4.570   2.536
 4236SOL    HW212528   5.044   4.720   2.474
 4237SOL     OW12529   4.554   4.997   3.284
 4237SOL    HW112530   4.549   5.030   3.379
 4237SOL    HW212531   4.468   5.016   3.238
 4238SOL     OW12532   3.987   4.050   2.582
 4238SOL    HW112533   3.908   4.101   2.548
 4238SOL    HW212534   3.978   4.035   2.680
 4239SOL     OW12535   4.918   5.336   1.893
 4239SOL    HW112536   4.924   5.243   1.930
 4239SOL    HW212537   4.859   5.336   1.813
 4240SOL     OW12538   4.546   4.726   3.234
 4240SOL    HW112539   4.586   4.725   3.142
 4240SOL    HW212540   4.556   4.818   3.274
 4241SOL     OW12541   4.640   4.634   2.153
 4241SOL    HW112542   4.703   4.672   2.085
 4241SOL    HW212543   4.680   4.551   2.192
 4242SOL     OW12544   4.096   5.012   3.352
 4242SOL    HW112545   4.083   5.105   3.318
 4242SOL    HW212546   4.012   4.960   3.339
 4243SOL     OW12547   4.763   4.822   2.558
 4243SOL    HW112548   4.693   4.775   2.612
 4243SOL    HW212549   4.822   4.754   2.515
 4244SOL     OW12550   4.738   3.960   2.833
 4244SOL    HW112551   4.730   3.924   2.740
 4244SOL    HW212552   4.736   3.884   2.898
 4245SOL     OW12553   3.829   4.737   3.588
 4245SOL    HW112554   3.752   4.704   3.642
 4245SOL    HW212555   3.914   4.707   3.630
 4246SOL     OW12556   4.396   3.927   3.351
 4246SOL    HW112557   4.486   3.911   3.311
 4246SOL    HW212558   4.404   3.932   3.450
 4247SOL     OW12559   3.799   4.069   1.895
 4247SOL    HW112560   3.707   4.041   1.866
 4247SOL    HW212561   3.830   4.146   1.839
 4248SOL     OW12562   5.164   4.580   3.260
 4248SOL    HW112563   5.107   4.632   3.197
 4248SOL    HW212564   5.260   4.592   3.236
 4249SOL     OW12565   3.796   3.890   2.180
 4249SOL    HW112566   3.779   3.973   2.126
 4249SOL    HW212567   3.886   3.853   2.158
 4250SOL     OW12568   4.337   4.566   3.293
 4250SOL    HW112569   4.393   4.647   3.276
 4250SOL    HW212570   4.396   4.486   3.296
 4251SOL     OW12571   4.440   4.289   3.570
 4251SOL    HW112572   4.459   4.354   3.644
 4251SOL    HW212573   4.500   4.209   3.579
 4252SOL     OW12574   5.174   4.944   3.495
 4252SOL    HW112575   5.165   4.934   3.594
 4252SOL    HW212576   5.270   4.937   3.469
 4253SOL     OW12577   4.949   4.049   2.311
 4253SOL    HW112578   5.014   3.975   2.300
 4253SOL    HW212579   4.969   4.099   2.395
 4254SOL     OW12580   4.318   4.469   2.514
 4254SOL    HW112581   4.368   4.554   2.495
 4254SOL    HW212582   4.230   4.471   2.466
 4255SOL     OW12583   4.583   4.680   2.723
 4255SOL    HW112584   4.637   4.611   2.771
 4255SOL    HW212585   4.551   4.749   2.789
 4256SOL     OW12586   4.807   4.708   1.949
 4256SOL    HW112587   4.784   4.761   1.867
 4256SOL    HW212588   4.888   4.652   1.930
 4257SOL     OW12589   3.803   4.964   2.515
 4257SOL    HW112590   3.802   4.917   2.603
 4257SOL    HW212591   3.885   4.936   2.464
 4258SOL     OW12592   4.152   4.148   2.382
 4258SOL    HW112593   4.182   4.076   2.320
 4258SOL    HW212594   4.113   4.108   2.465
 4259SOL     OW12595   4.041   4.271   3.142
 4259SOL    HW112596   4.079   4.212   3.214
 4259SOL    HW212597   4.081   4.245   3.054
 4260SOL     OW12598   4.725   3.758   3.016
 4260SOL    HW112599   4.662   3.686   2.985
 4260SOL    HW212600   4.818   3.722   3.016
 4261SOL     OW12601   4.494   5.054   2.163
 4261SOL    HW112602   4.448   4.967   2.180
 4261SOL    HW212603   4.585   5.051   2.204
 4262SOL     OW12604   5.076   3.776   2.030
 4262SOL    HW112605   5.111   3.735   1.946
 4262SOL    HW212606   4.986   3.738   2.050
 4263SOL     OW12607   3.763   4.801   2.162
 4263SOL    HW112608   3.862   4.790   2.153
 4263SOL    HW212609   3.723   4.715   2.194
 4264SOL     OW12610   3.954   4.352   3.837
 4264SOL    HW112611   3.861   4.350   3.874
 4264SOL    HW212612   3.955   4.313   3.745
 4265SOL     OW12613   3.949   3.999   4.720
 4265SOL    HW112614   3.984   3.982   4.812
 4265SOL    HW212615   3.861   3.954   4.708
 4266SOL     OW12616   3.743   4.092   4.371
 4266SOL    HW112617   3.661   4.135   4.410
 4266SOL    HW212618   3.715   4.019   4.308
 4267SOL     OW12619   4.293   4.999   4.889
 4267SOL    HW112620   4.200   4.992   4.852
 4267SOL    HW212621   4.304   5.088   4.933
 4268SOL     OW12622   4.859   4.427   4.441
 4268SOL    HW112623   4.916   4.505   4.416
 4268SOL    HW212624   4.799   4.453   4.517
 4269SOL     OW12625   4.492   4.868   4.747
 4269SOL    HW112626   4.414   4.885   4.807
 4269SOL    HW212627   4.526   4.955   4.711
 4270SOL     OW12628   4.409   4.736   4.389
 4270SOL    HW112629   4.478   4.720   4.459
 4270SOL    HW212630   4.336   4.793   4.427
 4271SOL     OW12631   4.059   5.159   4.785
 4271SOL    HW112632   3.981   5.128   4.732
 4271SOL    HW212633   4.117   5.217   4.728
 4272SOL     OW12634   3.964   4.815   4.610
 4272SOL    HW112635   3.978   4.731   4.662
 4272SOL    HW212636   3.909   4.879   4.665
 4273SOL     OW12637   4.330   4.688   3.847
 4273SOL    HW112638   4.337   4.772   3.793
 4273SOL    HW212639   4.376   4.701   3.935
 4274SOL     OW12640   3.846   4.367   4.287
 4274SOL    HW112641   3.801   4.279   4.304
 4274SOL    HW212642   3.845   4.421   4.371
 4275SOL     OW12643   4.533   3.728   4.226
 4275SOL    HW112644   4.573   3.819   4.217
 4275SOL    HW212645   4.433   3.736   4.232
 4276SOL     OW12646   3.921   4.700   4.988
 4276SOL    HW112647   4.010   4.655   4.974
 4276SOL    HW212648   3.848   4.635   4.969
 4277SOL     OW12649   4.322   4.453   3.994
 4277SOL    HW112650   4.346   4.522   3.926
 4277SOL    HW212651   4.244   4.486   4.048
 4278SOL     OW12652   5.005   4.069   4.668
 4278SOL    HW112653   4.919   4.019   4.655
 4278SOL    HW212654   5.067   4.015   4.724
 4279SOL     OW12655   4.715   4.134   4.966
 4279SOL    HW112656   4.638   4.168   5.020
 4279SOL    HW212657   4.681   4.083   4.887
 4280SOL     OW12658   4.765   4.425   4.153
 4280SOL    HW112659   4.791   4.421   4.249
 4280SOL    HW212660   4.680   4.374   4.139
 4281SOL     OW12661   3.800   4.535   4.513
 4281SOL    HW112662   3.899   4.523   4.522
 4281SOL    HW212663   3.776   4.630   4.534
 4282SOL     OW12664   4.589   4.072   3.919
 4282SOL    HW112665   4.648   4.135   3.870
 4282SOL    HW212666   4.608   3.978   3.890
 4283SOL     OW12667   4.274   3.920   4.609
 4283SOL    HW112668   4.269   3.915   4.709
 4283SOL    HW212669   4.276   4.016   4.580
 4284SOL     OW12670   4.045   4.667   3.966
 4284SOL    HW112671   4.127   4.706   3.924
 4284SOL    HW212672   4.018   4.585   3.917
 4285SOL     OW12673   4.106   4.424   4.204
 4285SOL    HW112674   4.151   4.334   4.201
 4285SOL    HW212675   4.012   4.413   4.237
 4286SOL     OW12676   4.338   3.846   3.841
 4286SOL    HW112677   4.436   3.824   3.848
 4286SOL    HW212678   4.307   3.829   3.748
 4287SOL     OW12679   4.527   5.126   4.648
 4287SOL    HW112680   4.617   5.140   4.606
 4287SOL    HW212681   4.456   5.128   4.577
 4288SOL     OW12682   4.646   4.227   4.623
 4288SOL    HW112683   4.621   4.218   4.527
 4288SOL    HW212684   4.694   4.145   4.654
 4289SOL     OW12685   4.263   3.788   4.236
 4289SOL    HW112686   4.182   3.789   4.294
 4289SOL    HW212687   4.266   3.871   4.181
 4290SOL     OW12688   5.158   4.912   3.765
 4290SOL    HW112689   5.190   4.836   3.822
 4290SOL    HW212690   5.066   4.939   3.795
 4291SOL     OW12691   4.021   3.759   3.895
 4291SOL    HW112692   4.070   3.843   3.874
 4291SOL    HW212693   4.083   3.694   3.940
 4292SOL     OW12694   4.659   3.960   4.204
 4292SOL    HW112695   4.611   4.001   4.126
 4292SOL    HW212696   4.758   3.958   4.185
 4293SOL     OW12697   4.951   5.294   4.517
 4293SOL    HW112698   4.972   5.368   4.452
 4293SOL    HW212699   5.019   5.294   4.590
 4294SOL     OW12700   4.183   4.876   4.465
 4294SOL    HW112701   4.112   4.849   4.530
 4294SOL    HW212702   4.157   4.848   4.372
 4295SOL     OW12703   4.756   4.273   3.740
 4295SOL    HW112704   4.715   4.355   3.701
 4295SOL    HW212705   4.820   4.299   3.813
 4296SOL     OW12706   4.285   3.946   4.871
 4296SOL    HW112707   4.323   3.862   4.908
 4296SOL    HW212708   4.197   3.965   4.915
 4297SOL     OW12709   4.590   4.178   4.366
 4297SOL    HW112710   4.558   4.250   4.304
 4297SOL    HW212711   4.614   4.097   4.313
 4298SOL     OW12712   4.741   3.763   4.477
 4298SOL    HW112713   4.669   3.768   4.408
 4298SOL    HW212714   4.717   3.694   4.546
 4299SOL     OW12715   4.251   3.980   4.052
 4299SOL    HW112716   4.278   3.921   3.977
 4299SOL    HW212717   4.251   4.075   4.021
 4300SOL     OW12718   4.429   4.774   4.092
 4300SOL    HW112719   4.415   4.781   4.191
 4300SOL    HW212720   4.513   4.723   4.074
 4301SOL     OW12721   4.134   4.537   4.975
 4301SOL    HW112722   4.220   4.549   5.025
 4301SOL    HW212723   4.092   4.450   5.002
 4302SOL     OW12724   4.091   4.824   4.225
 4302SOL    HW112725   4.084   4.907   4.169
 4302SOL    HW212726   4.095   4.744   4.165
 4303SOL     OW12727   4.290   4.261   4.589
 4303SOL    HW112728   4.302   4.327   4.515
 4303SOL    HW212729   4.336   4.295   4.672
 4304SOL     OW12730   4.976   5.072   4.112
 4304SOL    HW112731   5.026   5.149   4.152
 4304SOL    HW212732   4.881   5.074   4.144
 4305SOL     OW12733   4.297   4.594   4.753
 4305SOL    HW112734   4.341   4.683   4.744
 4305SOL    HW212735   4.234   4.594   4.830
 4306SOL     OW12736   5.084   4.586   4.769
 4306SOL    HW112737   5.009   4.586   4.703
 4306SOL    HW212738   5.121   4.494   4.778
 4307SOL     OW12739   4.933   4.249   3.999
 4307SOL    HW112740   4.946   4.165   4.053
 4307SOL    HW212741   4.904   4.323   4.059
 4308SOL     OW12742   4.031   3.937   4.955
 4308SOL    HW112743   4.008   3.974   5.045
 4308SOL    HW212744   4.001   3.842   4.949
 4309SOL     OW12745   4.456   4.358   4.788
 4309SOL    HW112746   4.515   4.332   4.712
 4309SOL    HW212747   4.428   4.454   4.777
 4310SOL     OW12748   4.031   3.787   4.342
 4310SOL    HW112749   4.020   3.881   4.375
 4310SOL    HW212750   4.026   3.724   4.419
 4311SOL     OW12751   5.346   4.091   4.098
 4311SOL    HW112752   5.348   4.015   4.162
 4311SOL    HW212753   5.298   4.168   4.138
 4312SOL     OW12754   4.747   4.490   4.690
 4312SOL    HW112755   4.762   4.511   4.786
 4312SOL    HW212756   4.717   4.395   4.681
 4313SOL     OW12757   5.027   4.562   3.766
 4313SOL    HW112758   5.061   4.469   3.781
 4313SOL    HW212759   5.045   4.589   3.671
 4314SOL     OW12760   4.043   4.534   4.673
 4314SOL    HW112761   4.136   4.570   4.678
 4314SOL    HW212762   4.037   4.449   4.725
 4315SOL     OW12763   4.063   4.233   4.730
 4315SOL    HW112764   4.011   4.150   4.713
 4315SOL    HW212765   4.140   4.238   4.666
 4316SOL     OW12766   4.884   3.931   5.201
 4316SOL    HW112767   4.884   3.995   5.278
 4316SOL    HW212768   4.912   3.979   5.118
 4317SOL     OW12769   3.732   5.050   3.924
 4317SOL    HW112770   3.639   5.071   3.893
 4317SOL    HW212771   3.742   4.951   3.937
 4318SOL     OW12772   4.726   4.520   4.962
 4318SOL    HW112773   4.767   4.488   5.048
 4318SOL    HW212774   4.630   4.493   4.959
 4319SOL     OW12775   3.764   4.268   4.838
 4319SOL    HW112776   3.849   4.235   4.797
 4319SOL    HW212777   3.777   4.283   4.936
 4320SOL     OW12778   4.539   4.296   4.049
 4320SOL    HW112779   4.546   4.207   4.003
 4320SOL    HW212780   4.445   4.330   4.041
 4321SOL     OW12781   4.395   4.188   4.993
 4321SOL    HW112782   4.361   4.099   4.963
 4321SOL    HW212783   4.421   4.242   4.913
 4322SOL     OW12784   4.197   4.224   3.915
 4322SOL    HW112785   4.258   4.304   3.919
 4322SOL    HW212786   4.102   4.255   3.922
 4323SOL     OW12787   5.071   4.783   4.958
 4323SOL    HW112788   5.095   4.720   4.884
 4323SOL    HW212789   4.981   4.823   4.940
 4324SOL     OW12790   3.807   4.982   4.746
 4324SOL    HW112791   3.802   4.981   4.846
 4324SOL    HW212792   3.724   4.941   4.708
 4325SOL     OW12793   5.004   4.651   4.396
 4325SOL    HW112794   5.064   4.570   4.398
 4325SOL    HW212795   5.044   4.720   4.336
 4326SOL     OW12796   4.554   4.997   5.146
 4326SOL    HW112797   4.549   5.030   5.241
 4326SOL    HW212798   4.468   5.016   5.100
 4327SOL     OW12799   3.987   4.050   4.444
 4327SOL    HW112800   3.908   4.101   4.410
 4327SOL    HW212801   3.978   4.035   4.542
 4328SOL     OW12802   4.918   5.336   3.755
 4328SOL    HW112803   4.924   5.243   3.792
 4328SOL    HW212804   4.859   5.336   3.675
 4329SOL     OW12805   4.546   4.726   5.096
 4329SOL    HW112806   4.586   4.725   5.004
 4329SOL    HW212807   4.556   4.818   5.136
 4330SOL     OW12808   4.640   4.634   4.015
 4330SOL    HW112809   4.703   4.672   3.947
 4330SOL    HW212810   4.680   4.551   4.054
 4331SOL     OW12811   4.763   4.822   4.420
 4331SOL    HW112812   4.693   4.775   4.474
 4331SOL    HW212813   4.822   4.754   4.377
 4332SOL     OW12814   4.738   3.960   4.695
 4332SOL    HW112815   4.730   3.924   4.602
 4332SOL    HW212816   4.736   3.884   4.760
 4333SOL     OW12817   3.799   4.069   3.757
 4333SOL    HW112818   3.707   4.041   3.728
 4333SOL    HW212819   3.830   4.146   3.701
 4334SOL     OW12820   3.796   3.890   4.042
 4334SOL    HW112821   3.779   3.973   3.988
 4334SOL    HW212822   3.886   3.853   4.020
 4335SOL     OW12823   4.949   4.049   4.173
 4335SOL    HW112824   5.014   3.975   4.162
 4335SOL    HW212825   4.969   4.099   4.257
 4336SOL     OW12826   4.318   4.469   4.376
 4336SOL    HW112827   4.368   4.554   4.357
 4336SOL    HW212828   4.230   4.471   4.328
 4337SOL     OW12829   4.583   4.680   4.585
 4337SOL    HW112830   4.637   4.611   4.633
 4337SOL    HW212831   4.551   4.749   4.651
 4338SOL     OW12832   4.807   4.708   3.811
 4338SOL    HW112833   4.784   4.761   3.729
 4338SOL    HW212834   4.888   4.652   3.792
 4339SOL     OW12835   3.803   4.964   4.377
 4339SOL    HW112836   3.802   4.917   4.465
 4339SOL    HW212837   3.885   4.936   4.326
 4340SOL     OW12838   4.152   4.148   4.244
 4340SOL    HW112839   4.182   4.076   4.182
 4340SOL    HW212840   4.113   4.108   4.327
 4341SOL     OW12841   4.725   3.758   4.878
 4341SOL    HW112842   4.662   3.686   4.847
 4341SOL    HW212843   4.818   3.722   4.878
 4342SOL     OW12844   4.494   5.054   4.025
 4342SOL    HW112845   4.448   4.967   4.042
 4342SOL    HW212846   4.585   5.051   4.066
 4343SOL     OW12847   5.076   3.776   3.892
 4343SOL    HW112848   5.111   3.735   3.808
 4343SOL    HW212849   4.986   3.738   3.912
 4344SOL     OW12850   3.763   4.801   4.024
 4344SOL    HW112851   3.862   4.790   4.015
 4344SOL    HW212852   3.723   4.715   4.056
 4345CL      CL12853   1.032   0.549   1.878
   5.08681   5.08681   5.08681
