;
;	File 'topol.top' was generated
;	By user: unknown (1000)
;	On host: DESKTOP-ESHF4SK
;	At date: Fri Sep 19 19:59:17 2025
;
;	This is a standalone topology file
;
;	Created by:
;	            :-) GROMACS - gmx pdb2gmx, 2021.4-Ubuntu-2021.4-2 (-:
;	
;	Executable:   /usr/bin/gmx
;	Data prefix:  /usr
;	Working dir:  /mnt/c/md
;	Command line:
;	  gmx pdb2gmx -f protein.pdb -o protein_processed.gro -water spce
;	Force field was read from the standard GROMACS share directory.
;

; Include forcefield parameters
#include "oplsaa.ff/forcefield.itp"

[ moleculetype ]
; Name            nrexcl
Protein_chain_A     3

[ atoms ]
;   nr       type  resnr residue  atom   cgnr     charge       mass  typeB    chargeB      massB
; residue 117 GLY rtp GLY  q +1.0
     1   opls_287    117    GLY      N      1       -0.3    14.0027
     2   opls_290    117    GLY     H1      1       0.33      1.008
     3   opls_290    117    GLY     H2      1       0.33      1.008
     4   opls_290    117    GLY     H3      1       0.33      1.008
     5  opls_292B    117    GLY     CA      1       0.19     12.011
     6   opls_140    117    GLY    HA1      1       0.06      1.008
     7   opls_140    117    GLY    HA2      1       0.06      1.008
     8   opls_235    117    GLY      C      2        0.5     12.011
     9   opls_236    117    GLY      O      2       -0.5    15.9994   ; qtot 1
; residue 118 THR rtp THR  q  0.0
    10   opls_238    118    THR      N      3       -0.5    14.0067
    11   opls_241    118    THR      H      3        0.3      1.008
    12  opls_224B    118    THR     CA      3       0.14     12.011
    13   opls_140    118    THR     HA      3       0.06      1.008
    14   opls_158    118    THR     CB      4      0.205     12.011
    15   opls_140    118    THR     HB      4       0.06      1.008
    16   opls_154    118    THR    OG1      4     -0.683    15.9994
    17   opls_155    118    THR    HG1      4      0.418      1.008
    18   opls_135    118    THR    CG2      5      -0.18     12.011
    19   opls_140    118    THR   HG21      5       0.06      1.008
    20   opls_140    118    THR   HG22      5       0.06      1.008
    21   opls_140    118    THR   HG23      5       0.06      1.008
    22   opls_235    118    THR      C      6        0.5     12.011
    23   opls_236    118    THR      O      6       -0.5    15.9994   ; qtot 1
; residue 119 ASP rtp ASP  q -1.0
    24   opls_238    119    ASP      N      7       -0.5    14.0067
    25   opls_241    119    ASP      H      7        0.3      1.008
    26  opls_224B    119    ASP     CA      7       0.14     12.011
    27   opls_140    119    ASP     HA      7       0.06      1.008
    28   opls_274    119    ASP     CB      8      -0.22     12.011
    29   opls_140    119    ASP    HB1      8       0.06      1.008
    30   opls_140    119    ASP    HB2      8       0.06      1.008
    31   opls_271    119    ASP     CG      9        0.7     12.011
    32   opls_272    119    ASP    OD1      9       -0.8    15.9994
    33   opls_272    119    ASP    OD2      9       -0.8    15.9994
    34   opls_235    119    ASP      C     10        0.5     12.011
    35   opls_236    119    ASP      O     10       -0.5    15.9994   ; qtot 0
; residue 120 VAL rtp VAL  q  0.0
    36   opls_238    120    VAL      N     11       -0.5    14.0067
    37   opls_241    120    VAL      H     11        0.3      1.008
    38  opls_224B    120    VAL     CA     11       0.14     12.011
    39   opls_140    120    VAL     HA     11       0.06      1.008
    40   opls_137    120    VAL     CB     12      -0.06     12.011
    41   opls_140    120    VAL     HB     12       0.06      1.008
    42   opls_135    120    VAL    CG1     13      -0.18     12.011
    43   opls_140    120    VAL   HG11     13       0.06      1.008
    44   opls_140    120    VAL   HG12     13       0.06      1.008
    45   opls_140    120    VAL   HG13     13       0.06      1.008
    46   opls_135    120    VAL    CG2     14      -0.18     12.011
    47   opls_140    120    VAL   HG21     14       0.06      1.008
    48   opls_140    120    VAL   HG22     14       0.06      1.008
    49   opls_140    120    VAL   HG23     14       0.06      1.008
    50   opls_235    120    VAL      C     15        0.5     12.011
    51   opls_236    120    VAL      O     15       -0.5    15.9994   ; qtot 0
; residue 121 GLN rtp GLN  q  0.0
    52   opls_238    121    GLN      N     16       -0.5    14.0067
    53   opls_241    121    GLN      H     16        0.3      1.008
    54  opls_224B    121    GLN     CA     17       0.14     12.011
    55   opls_140    121    GLN     HA     17       0.06      1.008
    56   opls_136    121    GLN     CB     18      -0.12     12.011
    57   opls_140    121    GLN    HB1     18       0.06      1.008
    58   opls_140    121    GLN    HB2     18       0.06      1.008
    59   opls_136    121    GLN     CG     19      -0.12     12.011
    60   opls_140    121    GLN    HG1     19       0.06      1.008
    61   opls_140    121    GLN    HG2     19       0.06      1.008
    62   opls_235    121    GLN     CD     20        0.5     12.011
    63   opls_236    121    GLN    OE1     20       -0.5    15.9994
    64   opls_237    121    GLN    NE2     21      -0.76    14.0067
    65   opls_240    121    GLN   HE21     21       0.38      1.008
    66   opls_240    121    GLN   HE22     21       0.38      1.008
    67   opls_235    121    GLN      C     22        0.5     12.011
    68   opls_236    121    GLN      O     22       -0.5    15.9994   ; qtot 0
; residue 122 ALA rtp ALA  q  0.0
    69   opls_238    122    ALA      N     23       -0.5    14.0067
    70   opls_241    122    ALA      H     23        0.3      1.008
    71  opls_224B    122    ALA     CA     23       0.14     12.011
    72   opls_140    122    ALA     HA     23       0.06      1.008
    73   opls_135    122    ALA     CB     24      -0.18     12.011
    74   opls_140    122    ALA    HB1     24       0.06      1.008
    75   opls_140    122    ALA    HB2     24       0.06      1.008
    76   opls_140    122    ALA    HB3     24       0.06      1.008
    77   opls_235    122    ALA      C     25        0.5     12.011
    78   opls_236    122    ALA      O     25       -0.5    15.9994   ; qtot 0
; residue 123 TRP rtp TRP  q  0.0
    79   opls_238    123    TRP      N     26       -0.5    14.0067
    80   opls_241    123    TRP      H     26        0.3      1.008
    81  opls_224B    123    TRP     CA     26       0.14     12.011
    82   opls_140    123    TRP     HA     26       0.06      1.008
    83   opls_136    123    TRP     CB     27      -0.12     12.011
    84   opls_140    123    TRP    HB1     27       0.06      1.008
    85   opls_140    123    TRP    HB2     27       0.06      1.008
    86   opls_500    123    TRP     CG     28      0.075     12.011
    87   opls_514    123    TRP    CD1     29     -0.115     12.011
    88   opls_146    123    TRP    HD1     29      0.115      1.008
    89   opls_501    123    TRP    CD2     30     -0.055     12.011
    90   opls_503    123    TRP    NE1     31      -0.57    14.0067
    91   opls_504    123    TRP    HE1     31       0.42      1.008
    92   opls_502    123    TRP    CE2     31       0.13     12.011
    93   opls_145    123    TRP    CE3     32     -0.115     12.011
    94   opls_146    123    TRP    HE3     32      0.115      1.008
    95   opls_145    123    TRP    CZ2     33     -0.115     12.011
    96   opls_146    123    TRP    HZ2     33      0.115      1.008
    97   opls_145    123    TRP    CZ3     34     -0.115     12.011
    98   opls_146    123    TRP    HZ3     34      0.115      1.008
    99   opls_145    123    TRP    CH2     35     -0.115     12.011
   100   opls_146    123    TRP    HH2     35      0.115      1.008
   101   opls_235    123    TRP      C     36        0.5     12.011
   102   opls_236    123    TRP      O     36       -0.5    15.9994   ; qtot 0
; residue 124 ILE rtp ILE  q  0.0
   103   opls_238    124    ILE      N     37       -0.5    14.0067
   104   opls_241    124    ILE      H     37        0.3      1.008
   105  opls_224B    124    ILE     CA     37       0.14     12.011
   106   opls_140    124    ILE     HA     37       0.06      1.008
   107   opls_137    124    ILE     CB     38      -0.06     12.011
   108   opls_140    124    ILE     HB     38       0.06      1.008
   109   opls_136    124    ILE    CG1     39      -0.12     12.011
   110   opls_140    124    ILE   HG11     39       0.06      1.008
   111   opls_140    124    ILE   HG12     39       0.06      1.008
   112   opls_135    124    ILE    CG2     40      -0.18     12.011
   113   opls_140    124    ILE   HG21     40       0.06      1.008
   114   opls_140    124    ILE   HG22     40       0.06      1.008
   115   opls_140    124    ILE   HG23     40       0.06      1.008
   116   opls_135    124    ILE     CD     41      -0.18     12.011
   117   opls_140    124    ILE    HD1     41       0.06      1.008
   118   opls_140    124    ILE    HD2     41       0.06      1.008
   119   opls_140    124    ILE    HD3     41       0.06      1.008
   120   opls_235    124    ILE      C     42        0.5     12.011
   121   opls_236    124    ILE      O     42       -0.5    15.9994   ; qtot 0
; residue 125 ARG rtp ARG  q +1.0
   122   opls_238    125    ARG      N     43       -0.5    14.0067
   123   opls_241    125    ARG      H     43        0.3      1.008
   124  opls_224B    125    ARG     CA     43       0.14     12.011
   125   opls_140    125    ARG     HA     43       0.06      1.008
   126   opls_136    125    ARG     CB     44      -0.12     12.011
   127   opls_140    125    ARG    HB1     44       0.06      1.008
   128   opls_140    125    ARG    HB2     44       0.06      1.008
   129   opls_308    125    ARG     CG     45      -0.05     12.011
   130   opls_140    125    ARG    HG1     45       0.06      1.008
   131   opls_140    125    ARG    HG2     45       0.06      1.008
   132   opls_307    125    ARG     CD     46       0.19     12.011
   133   opls_140    125    ARG    HD1     46       0.06      1.008
   134   opls_140    125    ARG    HD2     46       0.06      1.008
   135   opls_303    125    ARG     NE     47       -0.7    14.0067
   136   opls_304    125    ARG     HE     47       0.44      1.008
   137   opls_302    125    ARG     CZ     47       0.64     12.011
   138   opls_300    125    ARG    NH1     48       -0.8    14.0067
   139   opls_301    125    ARG   HH11     48       0.46      1.008
   140   opls_301    125    ARG   HH12     48       0.46      1.008
   141   opls_300    125    ARG    NH2     49       -0.8    14.0067
   142   opls_301    125    ARG   HH21     49       0.46      1.008
   143   opls_301    125    ARG   HH22     49       0.46      1.008
   144   opls_235    125    ARG      C     50        0.5     12.011
   145   opls_236    125    ARG      O     50       -0.5    15.9994   ; qtot 1
; residue 126 GLY rtp GLY  q  0.0
   146   opls_238    126    GLY      N     51       -0.5    14.0067
   147   opls_241    126    GLY      H     51        0.3      1.008
   148  opls_223B    126    GLY     CA     51       0.08     12.011
   149   opls_140    126    GLY    HA1     51       0.06      1.008
   150   opls_140    126    GLY    HA2     51       0.06      1.008
   151   opls_235    126    GLY      C     52        0.5     12.011
   152   opls_236    126    GLY      O     52       -0.5    15.9994   ; qtot 1
; residue 127 CYS rtp CYSH q  0.0
   153   opls_238    127    CYS      N     53       -0.5    14.0067
   154   opls_241    127    CYS      H     53        0.3      1.008
   155  opls_224B    127    CYS     CA     53       0.14     12.011
   156   opls_140    127    CYS     HA     53       0.06      1.008
   157   opls_206    127    CYS     CB     54       0.06     12.011
   158   opls_140    127    CYS    HB1     54       0.06      1.008
   159   opls_140    127    CYS    HB2     54       0.06      1.008
   160   opls_200    127    CYS     SG     55     -0.335      32.06
   161   opls_204    127    CYS     HG     55      0.155      1.008
   162   opls_235    127    CYS      C     56        0.5     12.011
   163   opls_236    127    CYS      O     56       -0.5    15.9994   ; qtot 1
; residue 128 ARG rtp ARG  q +1.0
   164   opls_238    128    ARG      N     57       -0.5    14.0067
   165   opls_241    128    ARG      H     57        0.3      1.008
   166  opls_224B    128    ARG     CA     57       0.14     12.011
   167   opls_140    128    ARG     HA     57       0.06      1.008
   168   opls_136    128    ARG     CB     58      -0.12     12.011
   169   opls_140    128    ARG    HB1     58       0.06      1.008
   170   opls_140    128    ARG    HB2     58       0.06      1.008
   171   opls_308    128    ARG     CG     59      -0.05     12.011
   172   opls_140    128    ARG    HG1     59       0.06      1.008
   173   opls_140    128    ARG    HG2     59       0.06      1.008
   174   opls_307    128    ARG     CD     60       0.19     12.011
   175   opls_140    128    ARG    HD1     60       0.06      1.008
   176   opls_140    128    ARG    HD2     60       0.06      1.008
   177   opls_303    128    ARG     NE     61       -0.7    14.0067
   178   opls_304    128    ARG     HE     61       0.44      1.008
   179   opls_302    128    ARG     CZ     61       0.64     12.011
   180   opls_300    128    ARG    NH1     62       -0.8    14.0067
   181   opls_301    128    ARG   HH11     62       0.46      1.008
   182   opls_301    128    ARG   HH12     62       0.46      1.008
   183   opls_300    128    ARG    NH2     63       -0.8    14.0067
   184   opls_301    128    ARG   HH21     63       0.46      1.008
   185   opls_301    128    ARG   HH22     63       0.46      1.008
   186   opls_235    128    ARG      C     64        0.5     12.011
   187   opls_236    128    ARG      O     64       -0.5    15.9994   ; qtot 2
; residue 129 LEU rtp LEU  q -1.0
   188   opls_238    129    LEU      N     65       -0.5    14.0067
   189   opls_241    129    LEU      H     65        0.3      1.008
   190   opls_283    129    LEU     CA     65       0.04     12.011
   191   opls_140    129    LEU     HA     65       0.06      1.008
   192   opls_136    129    LEU     CB     66      -0.12     12.011
   193   opls_140    129    LEU    HB1     66       0.06      1.008
   194   opls_140    129    LEU    HB2     66       0.06      1.008
   195   opls_137    129    LEU     CG     67      -0.06     12.011
   196   opls_140    129    LEU     HG     67       0.06      1.008
   197   opls_135    129    LEU    CD1     68      -0.18     12.011
   198   opls_140    129    LEU   HD11     68       0.06      1.008
   199   opls_140    129    LEU   HD12     68       0.06      1.008
   200   opls_140    129    LEU   HD13     68       0.06      1.008
   201   opls_135    129    LEU    CD2     69      -0.18     12.011
   202   opls_140    129    LEU   HD21     69       0.06      1.008
   203   opls_140    129    LEU   HD22     69       0.06      1.008
   204   opls_140    129    LEU   HD23     69       0.06      1.008
   205   opls_271    129    LEU      C     70        0.7     12.011
   206   opls_272    129    LEU     O1     70       -0.8    15.9994
   207   opls_272    129    LEU     O2     70       -0.8    15.9994   ; qtot 1

[ bonds ]
;  ai    aj funct            c0            c1            c2            c3
    1     2     1 
    1     3     1 
    1     4     1 
    1     5     1 
    5     6     1 
    5     7     1 
    5     8     1 
    8     9     1 
    8    10     1 
   10    11     1 
   10    12     1 
   12    13     1 
   12    14     1 
   12    22     1 
   14    15     1 
   14    16     1 
   14    18     1 
   16    17     1 
   18    19     1 
   18    20     1 
   18    21     1 
   22    23     1 
   22    24     1 
   24    25     1 
   24    26     1 
   26    27     1 
   26    28     1 
   26    34     1 
   28    29     1 
   28    30     1 
   28    31     1 
   31    32     1 
   31    33     1 
   34    35     1 
   34    36     1 
   36    37     1 
   36    38     1 
   38    39     1 
   38    40     1 
   38    50     1 
   40    41     1 
   40    42     1 
   40    46     1 
   42    43     1 
   42    44     1 
   42    45     1 
   46    47     1 
   46    48     1 
   46    49     1 
   50    51     1 
   50    52     1 
   52    53     1 
   52    54     1 
   54    55     1 
   54    56     1 
   54    67     1 
   56    57     1 
   56    58     1 
   56    59     1 
   59    60     1 
   59    61     1 
   59    62     1 
   62    63     1 
   62    64     1 
   64    65     1 
   64    66     1 
   67    68     1 
   67    69     1 
   69    70     1 
   69    71     1 
   71    72     1 
   71    73     1 
   71    77     1 
   73    74     1 
   73    75     1 
   73    76     1 
   77    78     1 
   77    79     1 
   79    80     1 
   79    81     1 
   81    82     1 
   81    83     1 
   81   101     1 
   83    84     1 
   83    85     1 
   83    86     1 
   86    87     1 
   86    89     1 
   87    88     1 
   87    90     1 
   89    92     1 
   89    93     1 
   90    91     1 
   90    92     1 
   92    95     1 
   93    94     1 
   93    97     1 
   95    96     1 
   95    99     1 
   97    98     1 
   97    99     1 
   99   100     1 
  101   102     1 
  101   103     1 
  103   104     1 
  103   105     1 
  105   106     1 
  105   107     1 
  105   120     1 
  107   108     1 
  107   109     1 
  107   112     1 
  109   110     1 
  109   111     1 
  109   116     1 
  112   113     1 
  112   114     1 
  112   115     1 
  116   117     1 
  116   118     1 
  116   119     1 
  120   121     1 
  120   122     1 
  122   123     1 
  122   124     1 
  124   125     1 
  124   126     1 
  124   144     1 
  126   127     1 
  126   128     1 
  126   129     1 
  129   130     1 
  129   131     1 
  129   132     1 
  132   133     1 
  132   134     1 
  132   135     1 
  135   136     1 
  135   137     1 
  137   138     1 
  137   141     1 
  138   139     1 
  138   140     1 
  141   142     1 
  141   143     1 
  144   145     1 
  144   146     1 
  146   147     1 
  146   148     1 
  148   149     1 
  148   150     1 
  148   151     1 
  151   152     1 
  151   153     1 
  153   154     1 
  153   155     1 
  155   156     1 
  155   157     1 
  155   162     1 
  157   158     1 
  157   159     1 
  157   160     1 
  160   161     1 
  162   163     1 
  162   164     1 
  164   165     1 
  164   166     1 
  166   167     1 
  166   168     1 
  166   186     1 
  168   169     1 
  168   170     1 
  168   171     1 
  171   172     1 
  171   173     1 
  171   174     1 
  174   175     1 
  174   176     1 
  174   177     1 
  177   178     1 
  177   179     1 
  179   180     1 
  179   183     1 
  180   181     1 
  180   182     1 
  183   184     1 
  183   185     1 
  186   187     1 
  186   188     1 
  188   189     1 
  188   190     1 
  190   191     1 
  190   192     1 
  190   205     1 
  192   193     1 
  192   194     1 
  192   195     1 
  195   196     1 
  195   197     1 
  195   201     1 
  197   198     1 
  197   199     1 
  197   200     1 
  201   202     1 
  201   203     1 
  201   204     1 
  205   206     1 
  205   207     1 

[ pairs ]
;  ai    aj funct            c0            c1            c2            c3
    1     9     1 
    1    10     1 
    2     6     1 
    2     7     1 
    2     8     1 
    3     6     1 
    3     7     1 
    3     8     1 
    4     6     1 
    4     7     1 
    4     8     1 
    5    11     1 
    5    12     1 
    6     9     1 
    6    10     1 
    7     9     1 
    7    10     1 
    8    13     1 
    8    14     1 
    8    22     1 
    9    11     1 
    9    12     1 
   10    15     1 
   10    16     1 
   10    18     1 
   10    23     1 
   10    24     1 
   11    13     1 
   11    14     1 
   11    22     1 
   12    17     1 
   12    19     1 
   12    20     1 
   12    21     1 
   12    25     1 
   12    26     1 
   13    15     1 
   13    16     1 
   13    18     1 
   13    23     1 
   13    24     1 
   14    23     1 
   14    24     1 
   15    17     1 
   15    19     1 
   15    20     1 
   15    21     1 
   15    22     1 
   16    19     1 
   16    20     1 
   16    21     1 
   16    22     1 
   17    18     1 
   18    22     1 
   22    27     1 
   22    28     1 
   22    34     1 
   23    25     1 
   23    26     1 
   24    29     1 
   24    30     1 
   24    31     1 
   24    35     1 
   24    36     1 
   25    27     1 
   25    28     1 
   25    34     1 
   26    32     1 
   26    33     1 
   26    37     1 
   26    38     1 
   27    29     1 
   27    30     1 
   27    31     1 
   27    35     1 
   27    36     1 
   28    35     1 
   28    36     1 
   29    32     1 
   29    33     1 
   29    34     1 
   30    32     1 
   30    33     1 
   30    34     1 
   31    34     1 
   34    39     1 
   34    40     1 
   34    50     1 
   35    37     1 
   35    38     1 
   36    41     1 
   36    42     1 
   36    46     1 
   36    51     1 
   36    52     1 
   37    39     1 
   37    40     1 
   37    50     1 
   38    43     1 
   38    44     1 
   38    45     1 
   38    47     1 
   38    48     1 
   38    49     1 
   38    53     1 
   38    54     1 
   39    41     1 
   39    42     1 
   39    46     1 
   39    51     1 
   39    52     1 
   40    51     1 
   40    52     1 
   41    43     1 
   41    44     1 
   41    45     1 
   41    47     1 
   41    48     1 
   41    49     1 
   41    50     1 
   42    47     1 
   42    48     1 
   42    49     1 
   42    50     1 
   43    46     1 
   44    46     1 
   45    46     1 
   46    50     1 
   50    55     1 
   50    56     1 
   50    67     1 
   51    53     1 
   51    54     1 
   52    57     1 
   52    58     1 
   52    59     1 
   52    68     1 
   52    69     1 
   53    55     1 
   53    56     1 
   53    67     1 
   54    60     1 
   54    61     1 
   54    62     1 
   54    70     1 
   54    71     1 
   55    57     1 
   55    58     1 
   55    59     1 
   55    68     1 
   55    69     1 
   56    63     1 
   56    64     1 
   56    68     1 
   56    69     1 
   57    60     1 
   57    61     1 
   57    62     1 
   57    67     1 
   58    60     1 
   58    61     1 
   58    62     1 
   58    67     1 
   59    65     1 
   59    66     1 
   59    67     1 
   60    63     1 
   60    64     1 
   61    63     1 
   61    64     1 
   63    65     1 
   63    66     1 
   67    72     1 
   67    73     1 
   67    77     1 
   68    70     1 
   68    71     1 
   69    74     1 
   69    75     1 
   69    76     1 
   69    78     1 
   69    79     1 
   70    72     1 
   70    73     1 
   70    77     1 
   71    80     1 
   71    81     1 
   72    74     1 
   72    75     1 
   72    76     1 
   72    78     1 
   72    79     1 
   73    78     1 
   73    79     1 
   74    77     1 
   75    77     1 
   76    77     1 
   77    82     1 
   77    83     1 
   77   101     1 
   78    80     1 
   78    81     1 
   79    84     1 
   79    85     1 
   79    86     1 
   79   102     1 
   79   103     1 
   80    82     1 
   80    83     1 
   80   101     1 
   81    87     1 
   81    89     1 
   81   104     1 
   81   105     1 
   82    84     1 
   82    85     1 
   82    86     1 
   82   102     1 
   82   103     1 
   83    88     1 
   83    90     1 
   83    92     1 
   83    93     1 
   83   102     1 
   83   103     1 
   84    87     1 
   84    89     1 
   84   101     1 
   85    87     1 
   85    89     1 
   85   101     1 
   86    91     1 
   86    94     1 
   86    95     1 
   86    97     1 
   86   101     1 
   87    93     1 
   87    95     1 
   88    89     1 
   88    91     1 
   88    92     1 
   89    91     1 
   89    96     1 
   89    98     1 
   89    99     1 
   90    93     1 
   90    96     1 
   90    99     1 
   91    95     1 
   92    94     1 
   92    97     1 
   92   100     1 
   93    95     1 
   93   100     1 
   94    98     1 
   94    99     1 
   95    98     1 
   96    97     1 
   96   100     1 
   98   100     1 
  101   106     1 
  101   107     1 
  101   120     1 
  102   104     1 
  102   105     1 
  103   108     1 
  103   109     1 
  103   112     1 
  103   121     1 
  103   122     1 
  104   106     1 
  104   107     1 
  104   120     1 
  105   110     1 
  105   111     1 
  105   113     1 
  105   114     1 
  105   115     1 
  105   116     1 
  105   123     1 
  105   124     1 
  106   108     1 
  106   109     1 
  106   112     1 
  106   121     1 
  106   122     1 
  107   117     1 
  107   118     1 
  107   119     1 
  107   121     1 
  107   122     1 
  108   110     1 
  108   111     1 
  108   113     1 
  108   114     1 
  108   115     1 
  108   116     1 
  108   120     1 
  109   113     1 
  109   114     1 
  109   115     1 
  109   120     1 
  110   112     1 
  110   117     1 
  110   118     1 
  110   119     1 
  111   112     1 
  111   117     1 
  111   118     1 
  111   119     1 
  112   116     1 
  112   120     1 
  120   125     1 
  120   126     1 
  120   144     1 
  121   123     1 
  121   124     1 
  122   127     1 
  122   128     1 
  122   129     1 
  122   145     1 
  122   146     1 
  123   125     1 
  123   126     1 
  123   144     1 
  124   130     1 
  124   131     1 
  124   132     1 
  124   147     1 
  124   148     1 
  125   127     1 
  125   128     1 
  125   129     1 
  125   145     1 
  125   146     1 
  126   133     1 
  126   134     1 
  126   135     1 
  126   145     1 
  126   146     1 
  127   130     1 
  127   131     1 
  127   132     1 
  127   144     1 
  128   130     1 
  128   131     1 
  128   132     1 
  128   144     1 
  129   136     1 
  129   137     1 
  129   144     1 
  130   133     1 
  130   134     1 
  130   135     1 
  131   133     1 
  131   134     1 
  131   135     1 
  132   138     1 
  132   141     1 
  133   136     1 
  133   137     1 
  134   136     1 
  134   137     1 
  135   139     1 
  135   140     1 
  135   142     1 
  135   143     1 
  136   138     1 
  136   141     1 
  138   142     1 
  138   143     1 
  139   141     1 
  140   141     1 
  144   149     1 
  144   150     1 
  144   151     1 
  145   147     1 
  145   148     1 
  146   152     1 
  146   153     1 
  147   149     1 
  147   150     1 
  147   151     1 
  148   154     1 
  148   155     1 
  149   152     1 
  149   153     1 
  150   152     1 
  150   153     1 
  151   156     1 
  151   157     1 
  151   162     1 
  152   154     1 
  152   155     1 
  153   158     1 
  153   159     1 
  153   160     1 
  153   163     1 
  153   164     1 
  154   156     1 
  154   157     1 
  154   162     1 
  155   161     1 
  155   165     1 
  155   166     1 
  156   158     1 
  156   159     1 
  156   160     1 
  156   163     1 
  156   164     1 
  157   163     1 
  157   164     1 
  158   161     1 
  158   162     1 
  159   161     1 
  159   162     1 
  160   162     1 
  162   167     1 
  162   168     1 
  162   186     1 
  163   165     1 
  163   166     1 
  164   169     1 
  164   170     1 
  164   171     1 
  164   187     1 
  164   188     1 
  165   167     1 
  165   168     1 
  165   186     1 
  166   172     1 
  166   173     1 
  166   174     1 
  166   189     1 
  166   190     1 
  167   169     1 
  167   170     1 
  167   171     1 
  167   187     1 
  167   188     1 
  168   175     1 
  168   176     1 
  168   177     1 
  168   187     1 
  168   188     1 
  169   172     1 
  169   173     1 
  169   174     1 
  169   186     1 
  170   172     1 
  170   173     1 
  170   174     1 
  170   186     1 
  171   178     1 
  171   179     1 
  171   186     1 
  172   175     1 
  172   176     1 
  172   177     1 
  173   175     1 
  173   176     1 
  173   177     1 
  174   180     1 
  174   183     1 
  175   178     1 
  175   179     1 
  176   178     1 
  176   179     1 
  177   181     1 
  177   182     1 
  177   184     1 
  177   185     1 
  178   180     1 
  178   183     1 
  180   184     1 
  180   185     1 
  181   183     1 
  182   183     1 
  186   191     1 
  186   192     1 
  186   205     1 
  187   189     1 
  187   190     1 
  188   193     1 
  188   194     1 
  188   195     1 
  188   206     1 
  188   207     1 
  189   191     1 
  189   192     1 
  189   205     1 
  190   196     1 
  190   197     1 
  190   201     1 
  191   193     1 
  191   194     1 
  191   195     1 
  191   206     1 
  191   207     1 
  192   198     1 
  192   199     1 
  192   200     1 
  192   202     1 
  192   203     1 
  192   204     1 
  192   206     1 
  192   207     1 
  193   196     1 
  193   197     1 
  193   201     1 
  193   205     1 
  194   196     1 
  194   197     1 
  194   201     1 
  194   205     1 
  195   205     1 
  196   198     1 
  196   199     1 
  196   200     1 
  196   202     1 
  196   203     1 
  196   204     1 
  197   202     1 
  197   203     1 
  197   204     1 
  198   201     1 
  199   201     1 
  200   201     1 

[ angles ]
;  ai    aj    ak funct            c0            c1            c2            c3
    2     1     3     1 
    2     1     4     1 
    2     1     5     1 
    3     1     4     1 
    3     1     5     1 
    4     1     5     1 
    1     5     6     1 
    1     5     7     1 
    1     5     8     1 
    6     5     7     1 
    6     5     8     1 
    7     5     8     1 
    5     8     9     1 
    5     8    10     1 
    9     8    10     1 
    8    10    11     1 
    8    10    12     1 
   11    10    12     1 
   10    12    13     1 
   10    12    14     1 
   10    12    22     1 
   13    12    14     1 
   13    12    22     1 
   14    12    22     1 
   12    14    15     1 
   12    14    16     1 
   12    14    18     1 
   15    14    16     1 
   15    14    18     1 
   16    14    18     1 
   14    16    17     1 
   14    18    19     1 
   14    18    20     1 
   14    18    21     1 
   19    18    20     1 
   19    18    21     1 
   20    18    21     1 
   12    22    23     1 
   12    22    24     1 
   23    22    24     1 
   22    24    25     1 
   22    24    26     1 
   25    24    26     1 
   24    26    27     1 
   24    26    28     1 
   24    26    34     1 
   27    26    28     1 
   27    26    34     1 
   28    26    34     1 
   26    28    29     1 
   26    28    30     1 
   26    28    31     1 
   29    28    30     1 
   29    28    31     1 
   30    28    31     1 
   28    31    32     1 
   28    31    33     1 
   32    31    33     1 
   26    34    35     1 
   26    34    36     1 
   35    34    36     1 
   34    36    37     1 
   34    36    38     1 
   37    36    38     1 
   36    38    39     1 
   36    38    40     1 
   36    38    50     1 
   39    38    40     1 
   39    38    50     1 
   40    38    50     1 
   38    40    41     1 
   38    40    42     1 
   38    40    46     1 
   41    40    42     1 
   41    40    46     1 
   42    40    46     1 
   40    42    43     1 
   40    42    44     1 
   40    42    45     1 
   43    42    44     1 
   43    42    45     1 
   44    42    45     1 
   40    46    47     1 
   40    46    48     1 
   40    46    49     1 
   47    46    48     1 
   47    46    49     1 
   48    46    49     1 
   38    50    51     1 
   38    50    52     1 
   51    50    52     1 
   50    52    53     1 
   50    52    54     1 
   53    52    54     1 
   52    54    55     1 
   52    54    56     1 
   52    54    67     1 
   55    54    56     1 
   55    54    67     1 
   56    54    67     1 
   54    56    57     1 
   54    56    58     1 
   54    56    59     1 
   57    56    58     1 
   57    56    59     1 
   58    56    59     1 
   56    59    60     1 
   56    59    61     1 
   56    59    62     1 
   60    59    61     1 
   60    59    62     1 
   61    59    62     1 
   59    62    63     1 
   59    62    64     1 
   63    62    64     1 
   62    64    65     1 
   62    64    66     1 
   65    64    66     1 
   54    67    68     1 
   54    67    69     1 
   68    67    69     1 
   67    69    70     1 
   67    69    71     1 
   70    69    71     1 
   69    71    72     1 
   69    71    73     1 
   69    71    77     1 
   72    71    73     1 
   72    71    77     1 
   73    71    77     1 
   71    73    74     1 
   71    73    75     1 
   71    73    76     1 
   74    73    75     1 
   74    73    76     1 
   75    73    76     1 
   71    77    78     1 
   71    77    79     1 
   78    77    79     1 
   77    79    80     1 
   77    79    81     1 
   80    79    81     1 
   79    81    82     1 
   79    81    83     1 
   79    81   101     1 
   82    81    83     1 
   82    81   101     1 
   83    81   101     1 
   81    83    84     1 
   81    83    85     1 
   81    83    86     1 
   84    83    85     1 
   84    83    86     1 
   85    83    86     1 
   83    86    87     1 
   83    86    89     1 
   87    86    89     1 
   86    87    88     1 
   86    87    90     1 
   88    87    90     1 
   86    89    92     1 
   86    89    93     1 
   92    89    93     1 
   87    90    91     1 
   87    90    92     1 
   91    90    92     1 
   89    92    90     1 
   89    92    95     1 
   90    92    95     1 
   89    93    94     1 
   89    93    97     1 
   94    93    97     1 
   92    95    96     1 
   92    95    99     1 
   96    95    99     1 
   93    97    98     1 
   93    97    99     1 
   98    97    99     1 
   95    99    97     1 
   95    99   100     1 
   97    99   100     1 
   81   101   102     1 
   81   101   103     1 
  102   101   103     1 
  101   103   104     1 
  101   103   105     1 
  104   103   105     1 
  103   105   106     1 
  103   105   107     1 
  103   105   120     1 
  106   105   107     1 
  106   105   120     1 
  107   105   120     1 
  105   107   108     1 
  105   107   109     1 
  105   107   112     1 
  108   107   109     1 
  108   107   112     1 
  109   107   112     1 
  107   109   110     1 
  107   109   111     1 
  107   109   116     1 
  110   109   111     1 
  110   109   116     1 
  111   109   116     1 
  107   112   113     1 
  107   112   114     1 
  107   112   115     1 
  113   112   114     1 
  113   112   115     1 
  114   112   115     1 
  109   116   117     1 
  109   116   118     1 
  109   116   119     1 
  117   116   118     1 
  117   116   119     1 
  118   116   119     1 
  105   120   121     1 
  105   120   122     1 
  121   120   122     1 
  120   122   123     1 
  120   122   124     1 
  123   122   124     1 
  122   124   125     1 
  122   124   126     1 
  122   124   144     1 
  125   124   126     1 
  125   124   144     1 
  126   124   144     1 
  124   126   127     1 
  124   126   128     1 
  124   126   129     1 
  127   126   128     1 
  127   126   129     1 
  128   126   129     1 
  126   129   130     1 
  126   129   131     1 
  126   129   132     1 
  130   129   131     1 
  130   129   132     1 
  131   129   132     1 
  129   132   133     1 
  129   132   134     1 
  129   132   135     1 
  133   132   134     1 
  133   132   135     1 
  134   132   135     1 
  132   135   136     1 
  132   135   137     1 
  136   135   137     1 
  135   137   138     1 
  135   137   141     1 
  138   137   141     1 
  137   138   139     1 
  137   138   140     1 
  139   138   140     1 
  137   141   142     1 
  137   141   143     1 
  142   141   143     1 
  124   144   145     1 
  124   144   146     1 
  145   144   146     1 
  144   146   147     1 
  144   146   148     1 
  147   146   148     1 
  146   148   149     1 
  146   148   150     1 
  146   148   151     1 
  149   148   150     1 
  149   148   151     1 
  150   148   151     1 
  148   151   152     1 
  148   151   153     1 
  152   151   153     1 
  151   153   154     1 
  151   153   155     1 
  154   153   155     1 
  153   155   156     1 
  153   155   157     1 
  153   155   162     1 
  156   155   157     1 
  156   155   162     1 
  157   155   162     1 
  155   157   158     1 
  155   157   159     1 
  155   157   160     1 
  158   157   159     1 
  158   157   160     1 
  159   157   160     1 
  157   160   161     1 
  155   162   163     1 
  155   162   164     1 
  163   162   164     1 
  162   164   165     1 
  162   164   166     1 
  165   164   166     1 
  164   166   167     1 
  164   166   168     1 
  164   166   186     1 
  167   166   168     1 
  167   166   186     1 
  168   166   186     1 
  166   168   169     1 
  166   168   170     1 
  166   168   171     1 
  169   168   170     1 
  169   168   171     1 
  170   168   171     1 
  168   171   172     1 
  168   171   173     1 
  168   171   174     1 
  172   171   173     1 
  172   171   174     1 
  173   171   174     1 
  171   174   175     1 
  171   174   176     1 
  171   174   177     1 
  175   174   176     1 
  175   174   177     1 
  176   174   177     1 
  174   177   178     1 
  174   177   179     1 
  178   177   179     1 
  177   179   180     1 
  177   179   183     1 
  180   179   183     1 
  179   180   181     1 
  179   180   182     1 
  181   180   182     1 
  179   183   184     1 
  179   183   185     1 
  184   183   185     1 
  166   186   187     1 
  166   186   188     1 
  187   186   188     1 
  186   188   189     1 
  186   188   190     1 
  189   188   190     1 
  188   190   191     1 
  188   190   192     1 
  188   190   205     1 
  191   190   192     1 
  191   190   205     1 
  192   190   205     1 
  190   192   193     1 
  190   192   194     1 
  190   192   195     1 
  193   192   194     1 
  193   192   195     1 
  194   192   195     1 
  192   195   196     1 
  192   195   197     1 
  192   195   201     1 
  196   195   197     1 
  196   195   201     1 
  197   195   201     1 
  195   197   198     1 
  195   197   199     1 
  195   197   200     1 
  198   197   199     1 
  198   197   200     1 
  199   197   200     1 
  195   201   202     1 
  195   201   203     1 
  195   201   204     1 
  202   201   203     1 
  202   201   204     1 
  203   201   204     1 
  190   205   206     1 
  190   205   207     1 
  206   205   207     1 

[ dihedrals ]
;  ai    aj    ak    al funct            c0            c1            c2            c3            c4            c5
    2     1     5     6     3 
    2     1     5     7     3 
    2     1     5     8     3 
    3     1     5     6     3 
    3     1     5     7     3 
    3     1     5     8     3 
    4     1     5     6     3 
    4     1     5     7     3 
    4     1     5     8     3 
    1     5     8     9     3 
    1     5     8    10     3 
    6     5     8     9     3 
    6     5     8    10     3 
    7     5     8     9     3 
    7     5     8    10     3 
    5     8    10    11     3 
    5     8    10    12     3 
    9     8    10    11     3 
    9     8    10    12     3 
    8    10    12    13     3 
    8    10    12    14     3 
    8    10    12    22     3 
   11    10    12    13     3 
   11    10    12    14     3 
   11    10    12    22     3 
   10    12    14    16     3    dih_SER_THR_chi1_N_C_C_O
   22    12    14    16     3    dih_SER_THR_chi1_CO_C_C_O
   10    12    14    15     3 
   10    12    14    18     3 
   13    12    14    15     3 
   13    12    14    16     3 
   13    12    14    18     3 
   22    12    14    15     3 
   22    12    14    18     3 
   10    12    22    23     3 
   10    12    22    24     3 
   13    12    22    23     3 
   13    12    22    24     3 
   14    12    22    23     3 
   14    12    22    24     3 
   12    14    16    17     3    dih_SER_THR_chi2_C_C_OH_HO
   15    14    16    17     3 
   18    14    16    17     3 
   12    14    18    19     3 
   12    14    18    20     3 
   12    14    18    21     3 
   15    14    18    19     3 
   15    14    18    20     3 
   15    14    18    21     3 
   16    14    18    19     3 
   16    14    18    20     3 
   16    14    18    21     3 
   12    22    24    25     3 
   12    22    24    26     3 
   23    22    24    25     3 
   23    22    24    26     3 
   22    24    26    27     3 
   22    24    26    28     3 
   22    24    26    34     3 
   25    24    26    27     3 
   25    24    26    28     3 
   25    24    26    34     3 
   24    26    28    31     3    dih_ASP_chi1_N_C_C_C
   34    26    28    31     3    dih_ASP_chi1_C_C_C_CO
   24    26    28    29     3 
   24    26    28    30     3 
   27    26    28    29     3 
   27    26    28    30     3 
   27    26    28    31     3 
   34    26    28    29     3 
   34    26    28    30     3 
   24    26    34    35     3 
   24    26    34    36     3 
   27    26    34    35     3 
   27    26    34    36     3 
   28    26    34    35     3 
   28    26    34    36     3 
   26    28    31    32     3 
   26    28    31    33     3 
   29    28    31    32     3 
   29    28    31    33     3 
   30    28    31    32     3 
   30    28    31    33     3 
   26    34    36    37     3 
   26    34    36    38     3 
   35    34    36    37     3 
   35    34    36    38     3 
   34    36    38    39     3 
   34    36    38    40     3 
   34    36    38    50     3 
   37    36    38    39     3 
   37    36    38    40     3 
   37    36    38    50     3 
   36    38    40    42     3    dih_VAL_chi1_N_C_C_C
   36    38    40    46     3    dih_VAL_chi1_N_C_C_C
   50    38    40    42     3    dih_VAL_chi1_C_C_C_CO
   50    38    40    46     3    dih_VAL_chi1_C_C_C_CO
   36    38    40    41     3 
   39    38    40    41     3 
   39    38    40    42     3 
   39    38    40    46     3 
   50    38    40    41     3 
   36    38    50    51     3 
   36    38    50    52     3 
   39    38    50    51     3 
   39    38    50    52     3 
   40    38    50    51     3 
   40    38    50    52     3 
   38    40    42    43     3 
   38    40    42    44     3 
   38    40    42    45     3 
   41    40    42    43     3 
   41    40    42    44     3 
   41    40    42    45     3 
   46    40    42    43     3 
   46    40    42    44     3 
   46    40    42    45     3 
   38    40    46    47     3 
   38    40    46    48     3 
   38    40    46    49     3 
   41    40    46    47     3 
   41    40    46    48     3 
   41    40    46    49     3 
   42    40    46    47     3 
   42    40    46    48     3 
   42    40    46    49     3 
   38    50    52    53     3 
   38    50    52    54     3 
   51    50    52    53     3 
   51    50    52    54     3 
   50    52    54    55     3 
   50    52    54    56     3 
   50    52    54    67     3 
   53    52    54    55     3 
   53    52    54    56     3 
   53    52    54    67     3 
   52    54    56    59     3    dih_GLN_chi1_N_C_C_C
   67    54    56    59     3    dih_GLN_chi1_C_C_C_CO
   52    54    56    57     3 
   52    54    56    58     3 
   55    54    56    57     3 
   55    54    56    58     3 
   55    54    56    59     3 
   67    54    56    57     3 
   67    54    56    58     3 
   52    54    67    68     3 
   52    54    67    69     3 
   55    54    67    68     3 
   55    54    67    69     3 
   56    54    67    68     3 
   56    54    67    69     3 
   54    56    59    60     3 
   54    56    59    61     3 
   54    56    59    62     3 
   57    56    59    60     3 
   57    56    59    61     3 
   57    56    59    62     3 
   58    56    59    60     3 
   58    56    59    61     3 
   58    56    59    62     3 
   56    59    62    64     3    dih_GLN_chi3_C_C_CO_N
   56    59    62    63     3 
   60    59    62    63     3 
   60    59    62    64     3 
   61    59    62    63     3 
   61    59    62    64     3 
   59    62    64    65     3 
   59    62    64    66     3 
   63    62    64    65     3 
   63    62    64    66     3 
   54    67    69    70     3 
   54    67    69    71     3 
   68    67    69    70     3 
   68    67    69    71     3 
   67    69    71    72     3 
   67    69    71    73     3 
   67    69    71    77     3 
   70    69    71    72     3 
   70    69    71    73     3 
   70    69    71    77     3 
   69    71    73    74     3 
   69    71    73    75     3 
   69    71    73    76     3 
   72    71    73    74     3 
   72    71    73    75     3 
   72    71    73    76     3 
   77    71    73    74     3 
   77    71    73    75     3 
   77    71    73    76     3 
   69    71    77    78     3 
   69    71    77    79     3 
   72    71    77    78     3 
   72    71    77    79     3 
   73    71    77    78     3 
   73    71    77    79     3 
   71    77    79    80     3 
   71    77    79    81     3 
   78    77    79    80     3 
   78    77    79    81     3 
   77    79    81    82     3 
   77    79    81    83     3 
   77    79    81   101     3 
   80    79    81    82     3 
   80    79    81    83     3 
   80    79    81   101     3 
   79    81    83    86     3    dih_TRP_chi1_N_C_C_C
  101    81    83    86     3    dih_TRP_chi1_C_C_C_CO
   79    81    83    84     3 
   79    81    83    85     3 
   82    81    83    84     3 
   82    81    83    85     3 
   82    81    83    86     3 
  101    81    83    84     3 
  101    81    83    85     3 
   79    81   101   102     3 
   79    81   101   103     3 
   82    81   101   102     3 
   82    81   101   103     3 
   83    81   101   102     3 
   83    81   101   103     3 
   81    83    86    87     3 
   81    83    86    89     3 
   84    83    86    87     3 
   84    83    86    89     3 
   85    83    86    87     3 
   85    83    86    89     3 
   83    86    87    88     3 
   83    86    87    90     3 
   89    86    87    88     3 
   89    86    87    90     3 
   83    86    89    92     3 
   83    86    89    93     3 
   87    86    89    92     3 
   87    86    89    93     3 
   86    87    90    91     3 
   86    87    90    92     3 
   88    87    90    91     3 
   88    87    90    92     3 
   86    89    92    90     3 
   86    89    92    95     3 
   93    89    92    90     3 
   93    89    92    95     3 
   86    89    93    94     3 
   86    89    93    97     3 
   92    89    93    94     3 
   92    89    93    97     3 
   87    90    92    89     3 
   87    90    92    95     3 
   91    90    92    89     3 
   91    90    92    95     3 
   89    92    95    96     3 
   89    92    95    99     3 
   90    92    95    96     3 
   90    92    95    99     3 
   89    93    97    98     3 
   89    93    97    99     3 
   94    93    97    98     3 
   94    93    97    99     3 
   92    95    99    97     3 
   92    95    99   100     3 
   96    95    99    97     3 
   96    95    99   100     3 
   93    97    99    95     3 
   93    97    99   100     3 
   98    97    99    95     3 
   98    97    99   100     3 
   81   101   103   104     3 
   81   101   103   105     3 
  102   101   103   104     3 
  102   101   103   105     3 
  101   103   105   106     3 
  101   103   105   107     3 
  101   103   105   120     3 
  104   103   105   106     3 
  104   103   105   107     3 
  104   103   105   120     3 
  103   105   107   109     3    dih_ILE_chi1_N_C_C_C
  103   105   107   112     3    dih_ILE_chi1_N_C_C_C
  120   105   107   109     3    dih_ILE_chi1_C_C_C_CO
  120   105   107   112     3    dih_ILE_chi1_C_C_C_CO
  103   105   107   108     3 
  106   105   107   108     3 
  106   105   107   109     3 
  106   105   107   112     3 
  120   105   107   108     3 
  103   105   120   121     3 
  103   105   120   122     3 
  106   105   120   121     3 
  106   105   120   122     3 
  107   105   120   121     3 
  107   105   120   122     3 
  105   107   109   110     3 
  105   107   109   111     3 
  105   107   109   116     3 
  108   107   109   110     3 
  108   107   109   111     3 
  108   107   109   116     3 
  112   107   109   110     3 
  112   107   109   111     3 
  112   107   109   116     3 
  105   107   112   113     3 
  105   107   112   114     3 
  105   107   112   115     3 
  108   107   112   113     3 
  108   107   112   114     3 
  108   107   112   115     3 
  109   107   112   113     3 
  109   107   112   114     3 
  109   107   112   115     3 
  107   109   116   117     3 
  107   109   116   118     3 
  107   109   116   119     3 
  110   109   116   117     3 
  110   109   116   118     3 
  110   109   116   119     3 
  111   109   116   117     3 
  111   109   116   118     3 
  111   109   116   119     3 
  105   120   122   123     3 
  105   120   122   124     3 
  121   120   122   123     3 
  121   120   122   124     3 
  120   122   124   125     3 
  120   122   124   126     3 
  120   122   124   144     3 
  123   122   124   125     3 
  123   122   124   126     3 
  123   122   124   144     3 
  122   124   126   129     3    dih_ARG_chi1_N_C_C_C
  144   124   126   129     3    dih_ARG_chi1_C_C_C_CO
  122   124   126   127     3 
  122   124   126   128     3 
  125   124   126   127     3 
  125   124   126   128     3 
  125   124   126   129     3 
  144   124   126   127     3 
  144   124   126   128     3 
  122   124   144   145     3 
  122   124   144   146     3 
  125   124   144   145     3 
  125   124   144   146     3 
  126   124   144   145     3 
  126   124   144   146     3 
  124   126   129   130     3 
  124   126   129   131     3 
  124   126   129   132     3 
  127   126   129   130     3 
  127   126   129   131     3 
  127   126   129   132     3 
  128   126   129   130     3 
  128   126   129   131     3 
  128   126   129   132     3 
  126   129   132   133     3 
  126   129   132   134     3 
  126   129   132   135     3 
  130   129   132   133     3 
  130   129   132   134     3 
  130   129   132   135     3 
  131   129   132   133     3 
  131   129   132   134     3 
  131   129   132   135     3 
  129   132   135   136     3 
  129   132   135   137     3 
  133   132   135   136     3 
  133   132   135   137     3 
  134   132   135   136     3 
  134   132   135   137     3 
  132   135   137   138     3 
  132   135   137   141     3 
  136   135   137   138     3 
  136   135   137   141     3 
  135   137   138   139     3 
  135   137   138   140     3 
  141   137   138   139     3 
  141   137   138   140     3 
  135   137   141   142     3 
  135   137   141   143     3 
  138   137   141   142     3 
  138   137   141   143     3 
  124   144   146   147     3 
  124   144   146   148     3 
  145   144   146   147     3 
  145   144   146   148     3 
  144   146   148   149     3 
  144   146   148   150     3 
  144   146   148   151     3 
  147   146   148   149     3 
  147   146   148   150     3 
  147   146   148   151     3 
  146   148   151   152     3 
  146   148   151   153     3 
  149   148   151   152     3 
  149   148   151   153     3 
  150   148   151   152     3 
  150   148   151   153     3 
  148   151   153   154     3 
  148   151   153   155     3 
  152   151   153   154     3 
  152   151   153   155     3 
  151   153   155   156     3 
  151   153   155   157     3 
  151   153   155   162     3 
  154   153   155   156     3 
  154   153   155   157     3 
  154   153   155   162     3 
  153   155   157   160     3    dih_CYS_chi1_N_C_C_S
  162   155   157   160     3    dih_CYS_chi1_CO_C_C_S
  153   155   157   158     3 
  153   155   157   159     3 
  156   155   157   158     3 
  156   155   157   159     3 
  156   155   157   160     3 
  162   155   157   158     3 
  162   155   157   159     3 
  153   155   162   163     3 
  153   155   162   164     3 
  156   155   162   163     3 
  156   155   162   164     3 
  157   155   162   163     3 
  157   155   162   164     3 
  155   157   160   161     3 
  158   157   160   161     3 
  159   157   160   161     3 
  155   162   164   165     3 
  155   162   164   166     3 
  163   162   164   165     3 
  163   162   164   166     3 
  162   164   166   167     3 
  162   164   166   168     3 
  162   164   166   186     3 
  165   164   166   167     3 
  165   164   166   168     3 
  165   164   166   186     3 
  164   166   168   171     3    dih_ARG_chi1_N_C_C_C
  186   166   168   171     3    dih_ARG_chi1_C_C_C_CO
  164   166   168   169     3 
  164   166   168   170     3 
  167   166   168   169     3 
  167   166   168   170     3 
  167   166   168   171     3 
  186   166   168   169     3 
  186   166   168   170     3 
  164   166   186   187     3 
  164   166   186   188     3 
  167   166   186   187     3 
  167   166   186   188     3 
  168   166   186   187     3 
  168   166   186   188     3 
  166   168   171   172     3 
  166   168   171   173     3 
  166   168   171   174     3 
  169   168   171   172     3 
  169   168   171   173     3 
  169   168   171   174     3 
  170   168   171   172     3 
  170   168   171   173     3 
  170   168   171   174     3 
  168   171   174   175     3 
  168   171   174   176     3 
  168   171   174   177     3 
  172   171   174   175     3 
  172   171   174   176     3 
  172   171   174   177     3 
  173   171   174   175     3 
  173   171   174   176     3 
  173   171   174   177     3 
  171   174   177   178     3 
  171   174   177   179     3 
  175   174   177   178     3 
  175   174   177   179     3 
  176   174   177   178     3 
  176   174   177   179     3 
  174   177   179   180     3 
  174   177   179   183     3 
  178   177   179   180     3 
  178   177   179   183     3 
  177   179   180   181     3 
  177   179   180   182     3 
  183   179   180   181     3 
  183   179   180   182     3 
  177   179   183   184     3 
  177   179   183   185     3 
  180   179   183   184     3 
  180   179   183   185     3 
  166   186   188   189     3 
  166   186   188   190     3 
  187   186   188   189     3 
  187   186   188   190     3 
  186   188   190   191     3 
  186   188   190   192     3 
  186   188   190   205     3 
  189   188   190   191     3 
  189   188   190   192     3 
  189   188   190   205     3 
  188   190   192   195     3    dih_LEU_chi1_N_C_C_C
  205   190   192   195     3    dih_LEU_chi1_C_C_C_CO
  188   190   192   193     3 
  188   190   192   194     3 
  191   190   192   193     3 
  191   190   192   194     3 
  191   190   192   195     3 
  205   190   192   193     3 
  205   190   192   194     3 
  188   190   205   206     3 
  188   190   205   207     3 
  191   190   205   206     3 
  191   190   205   207     3 
  192   190   205   206     3 
  192   190   205   207     3 
  190   192   195   196     3 
  190   192   195   197     3 
  190   192   195   201     3 
  193   192   195   196     3 
  193   192   195   197     3 
  193   192   195   201     3 
  194   192   195   196     3 
  194   192   195   197     3 
  194   192   195   201     3 
  192   195   197   198     3 
  192   195   197   199     3 
  192   195   197   200     3 
  196   195   197   198     3 
  196   195   197   199     3 
  196   195   197   200     3 
  201   195   197   198     3 
  201   195   197   199     3 
  201   195   197   200     3 
  192   195   201   202     3 
  192   195   201   203     3 
  192   195   201   204     3 
  196   195   201   202     3 
  196   195   201   203     3 
  196   195   201   204     3 
  197   195   201   202     3 
  197   195   201   203     3 
  197   195   201   204     3 

[ dihedrals ]
;  ai    aj    ak    al funct            c0            c1            c2            c3
    5    10     8     9     1    improper_O_C_X_Y
    8    12    10    11     1    improper_Z_N_X_Y
   12    24    22    23     1    improper_O_C_X_Y
   22    26    24    25     1    improper_Z_N_X_Y
   26    36    34    35     1    improper_O_C_X_Y
   28    32    31    33     1    improper_O_C_X_Y
   34    38    36    37     1    improper_Z_N_X_Y
   38    52    50    51     1    improper_O_C_X_Y
   50    54    52    53     1    improper_Z_N_X_Y
   54    69    67    68     1    improper_O_C_X_Y
   59    64    62    63     1    improper_O_C_X_Y
   62    65    64    66     1    improper_Z_N_X_Y
   67    71    69    70     1    improper_Z_N_X_Y
   71    79    77    78     1    improper_O_C_X_Y
   77    81    79    80     1    improper_Z_N_X_Y
   81   103   101   102     1    improper_O_C_X_Y
   83    86    89    87     1    improper_Z_CA_X_Y
   86    90    87    88     1    improper_Z_CA_X_Y
   87    92    90    91     1    improper_Z_N_X_Y
   92    99    95    96     1    improper_Z_CA_X_Y
   94    93    89    97     1    improper_Z_CA_X_Y
   95    97    99   100     1    improper_Z_CA_X_Y
   98    97    93    99     1    improper_Z_CA_X_Y
  101   105   103   104     1    improper_Z_N_X_Y
  105   122   120   121     1    improper_O_C_X_Y
  120   124   122   123     1    improper_Z_N_X_Y
  124   146   144   145     1    improper_O_C_X_Y
  132   137   135   136     1    improper_Z_N_X_Y
  135   138   137   141     1    improper_O_C_X_Y
  137   139   138   140     1    improper_Z_N_X_Y
  137   142   141   143     1    improper_Z_N_X_Y
  144   148   146   147     1    improper_Z_N_X_Y
  148   153   151   152     1    improper_O_C_X_Y
  151   155   153   154     1    improper_Z_N_X_Y
  155   164   162   163     1    improper_O_C_X_Y
  162   166   164   165     1    improper_Z_N_X_Y
  166   188   186   187     1    improper_O_C_X_Y
  174   179   177   178     1    improper_Z_N_X_Y
  177   180   179   183     1    improper_O_C_X_Y
  179   181   180   182     1    improper_Z_N_X_Y
  179   184   183   185     1    improper_Z_N_X_Y
  186   190   188   189     1    improper_Z_N_X_Y
  190   206   205   207     1    improper_O_C_X_Y

; Include Position restraint file
#ifdef POSRES
#include "posre.itp"
#endif

; Include water topology
#include "oplsaa.ff/spce.itp"

#ifdef POSRES_WATER
; Position restraint for each water oxygen
[ position_restraints ]
;  i funct       fcx        fcy        fcz
   1    1       1000       1000       1000
#endif

; Include topology for ions
#include "oplsaa.ff/ions.itp"

[ system ]
; Name
Protein in water

[ molecules ]
; Compound        #mols
Protein_chain_A     1
SOL         4215
CL               1
